##File Type: Far field
#Frequency: 1.57542e+09
#No. of Theta Samples: 41
#No. of Phi Samples: 49
#Far Field Type: Gain
#No. of Header Lines: 1
#    "Theta"    "Phi"    "Re(Etheta)"    "Im(Etheta)"    "Re(Ephi)"     "Im(Ephi)"    "Gain(Theta)"    "Gain(Phi)"    "Gain(Total)"
0 0 0 0 0 0 0 0 5.681
4.5 0 0 0 0 0 0 0 5.67425
9 0 0 0 0 0 0 0 5.585
13.5 0 0 0 0 0 0 0 5.4005
18 0 0 0 0 0 0 0 5.108
22.5 0 0 0 0 0 0 0 4.74725
27 0 0 0 0 0 0 0 4.397
31.5 0 0 0 0 0 0 0 4.01675
36 0 0 0 0 0 0 0 3.566
40.5 0 0 0 0 0 0 0 2.86325
45 0 0 0 0 0 0 0 2.0595
49.5 0 0 0 0 0 0 0 1.2515
54 0 0 0 0 0 0 0 0.536
58.5 0 0 0 0 0 0 0 -0.0025
63 0 0 0 0 0 0 0 -0.6585
67.5 0 0 0 0 0 0 0 -1.46375
72 0 0 0 0 0 0 0 -2.45
76.5 0 0 0 0 0 0 0 -3.30875
81 0 0 0 0 0 0 0 -3.9885
85.5 0 0 0 0 0 0 0 -4.6365
90 0 0 0 0 0 0 0 -5.4
94.5 0 0 0 0 0 0 0 -6.49275
99 0 0 0 0 0 0 0 -7.6625
103.5 0 0 0 0 0 0 0 -8.86125
108 0 0 0 0 0 0 0 -10.041
112.5 0 0 0 0 0 0 0 -11.2163
117 0 0 0 0 0 0 0 -12.279
121.5 0 0 0 0 0 0 0 -13.2662
126 0 0 0 0 0 0 0 -14.215
130.5 0 0 0 0 0 0 0 -15.5942
135 0 0 0 0 0 0 0 -17.227
139.5 0 0 0 0 0 0 0 -18.9288
144 0 0 0 0 0 0 0 -20.515
148.5 0 0 0 0 0 0 0 -21.8777
153 0 0 0 0 0 0 0 -23.789
157.5 0 0 0 0 0 0 0 -26.577
162 0 0 0 0 0 0 0 -30.57
166.5 0 0 0 0 0 0 0 -31.1625
171 0 0 0 0 0 0 0 -31.4555
175.5 0 0 0 0 0 0 0 -32.2065
180 0 0 0 0 0 0 0 -34.173
0 7.5 0 0 0 0 0 0 5.681
4.5 7.5 0 0 0 0 0 0 5.67219
9 7.5 0 0 0 0 0 0 5.58162
13.5 7.5 0 0 0 0 0 0 5.39369
18 7.5 0 0 0 0 0 0 5.09275
22.5 7.5 0 0 0 0 0 0 4.71963
27 7.5 0 0 0 0 0 0 4.36238
31.5 7.5 0 0 0 0 0 0 3.98037
36 7.5 0 0 0 0 0 0 3.533
40.5 7.5 0 0 0 0 0 0 2.83606
45 7.5 0 0 0 0 0 0 2.04325
49.5 7.5 0 0 0 0 0 0 1.24794
54 7.5 0 0 0 0 0 0 0.5435
58.5 7.5 0 0 0 0 0 0 0.002375
63 7.5 0 0 0 0 0 0 -0.64975
67.5 7.5 0 0 0 0 0 0 -1.44981
72 7.5 0 0 0 0 0 0 -2.43475
76.5 7.5 0 0 0 0 0 0 -3.30981
81 7.5 0 0 0 0 0 0 -3.99837
85.5 7.5 0 0 0 0 0 0 -4.65412
90 7.5 0 0 0 0 0 0 -5.43075
94.5 7.5 0 0 0 0 0 0 -6.57075
99 7.5 0 0 0 0 0 0 -7.78463
103.5 7.5 0 0 0 0 0 0 -9.02106
108 7.5 0 0 0 0 0 0 -10.2287
112.5 7.5 0 0 0 0 0 0 -11.4106
117 7.5 0 0 0 0 0 0 -12.429
121.5 7.5 0 0 0 0 0 0 -13.3359
126 7.5 0 0 0 0 0 0 -14.183
130.5 7.5 0 0 0 0 0 0 -15.5497
135 7.5 0 0 0 0 0 0 -17.1791
139.5 7.5 0 0 0 0 0 0 -18.8679
144 7.5 0 0 0 0 0 0 -20.4125
148.5 7.5 0 0 0 0 0 0 -21.6684
153 7.5 0 0 0 0 0 0 -23.5611
157.5 7.5 0 0 0 0 0 0 -26.4706
162 7.5 0 0 0 0 0 0 -30.7765
166.5 7.5 0 0 0 0 0 0 -30.751
171 7.5 0 0 0 0 0 0 -30.819
175.5 7.5 0 0 0 0 0 0 -31.7149
180 7.5 0 0 0 0 0 0 -35.415
0 15 0 0 0 0 0 0 5.681
4.5 15 0 0 0 0 0 0 5.66937
9 15 0 0 0 0 0 0 5.57675
13.5 15 0 0 0 0 0 0 5.38525
18 15 0 0 0 0 0 0 5.077
22.5 15 0 0 0 0 0 0 4.69075
27 15 0 0 0 0 0 0 4.32475
31.5 15 0 0 0 0 0 0 3.93875
36 15 0 0 0 0 0 0 3.4925
40.5 15 0 0 0 0 0 0 2.798
45 15 0 0 0 0 0 0 2.0115
49.5 15 0 0 0 0 0 0 1.22175
54 15 0 0 0 0 0 0 0.5175
58.5 15 0 0 0 0 0 0 -0.035625
63 15 0 0 0 0 0 0 -0.688
67.5 15 0 0 0 0 0 0 -1.47875
72 15 0 0 0 0 0 0 -2.447
76.5 15 0 0 0 0 0 0 -3.31775
81 15 0 0 0 0 0 0 -3.9945
85.5 15 0 0 0 0 0 0 -4.64025
90 15 0 0 0 0 0 0 -5.418
94.5 15 0 0 0 0 0 0 -6.62662
99 15 0 0 0 0 0 0 -7.9145
103.5 15 0 0 0 0 0 0 -9.21112
108 15 0 0 0 0 0 0 -10.446
112.5 15 0 0 0 0 0 0 -11.6092
117 15 0 0 0 0 0 0 -12.5518
121.5 15 0 0 0 0 0 0 -13.3344
126 15 0 0 0 0 0 0 -14.018
130.5 15 0 0 0 0 0 0 -15.3316
135 15 0 0 0 0 0 0 -16.9672
139.5 15 0 0 0 0 0 0 -18.6664
144 15 0 0 0 0 0 0 -20.1705
148.5 15 0 0 0 0 0 0 -21.3019
153 15 0 0 0 0 0 0 -23.1958
157.5 15 0 0 0 0 0 0 -26.2218
162 15 0 0 0 0 0 0 -30.7495
166.5 15 0 0 0 0 0 0 -30.1409
171 15 0 0 0 0 0 0 -30.1028
175.5 15 0 0 0 0 0 0 -31.2439
180 15 0 0 0 0 0 0 -35.001
0 22.5 0 0 0 0 0 0 5.681
4.5 22.5 0 0 0 0 0 0 5.66544
9 22.5 0 0 0 0 0 0 5.57
13.5 22.5 0 0 0 0 0 0 5.37531
18 22.5 0 0 0 0 0 0 5.062
22.5 22.5 0 0 0 0 0 0 4.66544
27 22.5 0 0 0 0 0 0 4.29125
31.5 22.5 0 0 0 0 0 0 3.9005
36 22.5 0 0 0 0 0 0 3.45425
40.5 22.5 0 0 0 0 0 0 2.76162
45 22.5 0 0 0 0 0 0 1.976
49.5 22.5 0 0 0 0 0 0 1.18487
54 22.5 0 0 0 0 0 0 0.47575
58.5 22.5 0 0 0 0 0 0 -0.09275
63 22.5 0 0 0 0 0 0 -0.75325
67.5 22.5 0 0 0 0 0 0 -1.53919
72 22.5 0 0 0 0 0 0 -2.484
76.5 22.5 0 0 0 0 0 0 -3.32175
81 22.5 0 0 0 0 0 0 -3.97225
85.5 22.5 0 0 0 0 0 0 -4.60462
90 22.5 0 0 0 0 0 0 -5.388
94.5 22.5 0 0 0 0 0 0 -6.65625
99 22.5 0 0 0 0 0 0 -8.01212
103.5 22.5 0 0 0 0 0 0 -9.35975
108 22.5 0 0 0 0 0 0 -10.6032
112.5 22.5 0 0 0 0 0 0 -11.7142
117 22.5 0 0 0 0 0 0 -12.562
121.5 22.5 0 0 0 0 0 0 -13.2151
126 22.5 0 0 0 0 0 0 -13.742
130.5 22.5 0 0 0 0 0 0 -14.9885
135 22.5 0 0 0 0 0 0 -16.611
139.5 22.5 0 0 0 0 0 0 -18.3002
144 22.5 0 0 0 0 0 0 -19.747
148.5 22.5 0 0 0 0 0 0 -20.7989
153 22.5 0 0 0 0 0 0 -22.7501
157.5 22.5 0 0 0 0 0 0 -25.9004
162 22.5 0 0 0 0 0 0 -30.5493
166.5 22.5 0 0 0 0 0 0 -29.4841
171 22.5 0 0 0 0 0 0 -29.4217
175.5 22.5 0 0 0 0 0 0 -30.8291
180 22.5 0 0 0 0 0 0 -34.587
0 30 0 0 0 0 0 0 5.681
4.5 30 0 0 0 0 0 0 5.66075
9 30 0 0 0 0 0 0 5.5615
13.5 30 0 0 0 0 0 0 5.364
18 30 0 0 0 0 0 0 5.049
22.5 30 0 0 0 0 0 0 4.64775
27 30 0 0 0 0 0 0 4.2675
31.5 30 0 0 0 0 0 0 3.87175
36 30 0 0 0 0 0 0 3.424
40.5 30 0 0 0 0 0 0 2.7325
45 30 0 0 0 0 0 0 1.944
49.5 30 0 0 0 0 0 0 1.147
54 30 0 0 0 0 0 0 0.43
58.5 30 0 0 0 0 0 0 -0.14675
63 30 0 0 0 0 0 0 -0.812
67.5 30 0 0 0 0 0 0 -1.59275
72 30 0 0 0 0 0 0 -2.516
76.5 30 0 0 0 0 0 0 -3.32
81 30 0 0 0 0 0 0 -3.961
85.5 30 0 0 0 0 0 0 -4.60625
90 30 0 0 0 0 0 0 -5.423
94.5 30 0 0 0 0 0 0 -6.73625
99 30 0 0 0 0 0 0 -8.13
103.5 30 0 0 0 0 0 0 -9.481
108 30 0 0 0 0 0 0 -10.666
112.5 30 0 0 0 0 0 0 -11.6455
117 30 0 0 0 0 0 0 -12.3675
121.5 30 0 0 0 0 0 0 -12.9153
126 30 0 0 0 0 0 0 -13.372
130.5 30 0 0 0 0 0 0 -14.611
135 30 0 0 0 0 0 0 -16.221
139.5 30 0 0 0 0 0 0 -17.8657
144 30 0 0 0 0 0 0 -19.209
148.5 30 0 0 0 0 0 0 -20.2462
153 30 0 0 0 0 0 0 -22.3145
157.5 30 0 0 0 0 0 0 -25.5907
162 30 0 0 0 0 0 0 -30.252
166.5 30 0 0 0 0 0 0 -28.8795
171 30 0 0 0 0 0 0 -28.8455
175.5 30 0 0 0 0 0 0 -30.495
180 30 0 0 0 0 0 0 -34.173
0 37.5 0 0 0 0 0 0 5.681
4.5 37.5 0 0 0 0 0 0 5.65494
9 37.5 0 0 0 0 0 0 5.551
13.5 37.5 0 0 0 0 0 0 5.35119
18 37.5 0 0 0 0 0 0 5.0375
22.5 37.5 0 0 0 0 0 0 4.63887
27 37.5 0 0 0 0 0 0 4.25475
31.5 37.5 0 0 0 0 0 0 3.85231
36 37.5 0 0 0 0 0 0 3.39875
40.5 37.5 0 0 0 0 0 0 2.70688
45 37.5 0 0 0 0 0 0 1.91363
49.5 37.5 0 0 0 0 0 0 1.10944
54 37.5 0 0 0 0 0 0 0.38475
58.5 37.5 0 0 0 0 0 0 -0.18975
63 37.5 0 0 0 0 0 0 -0.852625
67.5 37.5 0 0 0 0 0 0 -1.62994
72 37.5 0 0 0 0 0 0 -2.54775
76.5 37.5 0 0 0 0 0 0 -3.34875
81 37.5 0 0 0 0 0 0 -4.002
85.5 37.5 0 0 0 0 0 0 -4.66694
90 37.5 0 0 0 0 0 0 -5.503
94.5 37.5 0 0 0 0 0 0 -6.82638
99 37.5 0 0 0 0 0 0 -8.2205
103.5 37.5 0 0 0 0 0 0 -9.53831
108 37.5 0 0 0 0 0 0 -10.6328
112.5 37.5 0 0 0 0 0 0 -11.4653
117 37.5 0 0 0 0 0 0 -12.0735
121.5 37.5 0 0 0 0 0 0 -12.5543
126 37.5 0 0 0 0 0 0 -13.0045
130.5 37.5 0 0 0 0 0 0 -14.2671
135 37.5 0 0 0 0 0 0 -15.8654
139.5 37.5 0 0 0 0 0 0 -17.4564
144 37.5 0 0 0 0 0 0 -18.6973
148.5 37.5 0 0 0 0 0 0 -19.7979
153 37.5 0 0 0 0 0 0 -22.0191
157.5 37.5 0 0 0 0 0 0 -25.374
162 37.5 0 0 0 0 0 0 -29.8755
166.5 37.5 0 0 0 0 0 0 -28.3832
171 37.5 0 0 0 0 0 0 -28.4307
175.5 37.5 0 0 0 0 0 0 -30.2751
180 37.5 0 0 0 0 0 0 -35.415
0 45 0 0 0 0 0 0 5.681
4.5 45 0 0 0 0 0 0 5.648
9 45 0 0 0 0 0 0 5.538
13.5 45 0 0 0 0 0 0 5.33525
18 45 0 0 0 0 0 0 5.024
22.5 45 0 0 0 0 0 0 4.63175
27 45 0 0 0 0 0 0 4.24675
31.5 45 0 0 0 0 0 0 3.8375
36 45 0 0 0 0 0 0 3.3725
40.5 45 0 0 0 0 0 0 2.67762
45 45 0 0 0 0 0 0 1.88175
49.5 45 0 0 0 0 0 0 1.07488
54 45 0 0 0 0 0 0 0.347
58.5 45 0 0 0 0 0 0 -0.22525
63 45 0 0 0 0 0 0 -0.892
67.5 45 0 0 0 0 0 0 -1.67925
72 45 0 0 0 0 0 0 -2.613
76.5 45 0 0 0 0 0 0 -3.42413
81 45 0 0 0 0 0 0 -4.08425
85.5 45 0 0 0 0 0 0 -4.75312
90 45 0 0 0 0 0 0 -5.5905
94.5 45 0 0 0 0 0 0 -6.918
99 45 0 0 0 0 0 0 -8.2995
103.5 45 0 0 0 0 0 0 -9.56837
108 45 0 0 0 0 0 0 -10.558
112.5 45 0 0 0 0 0 0 -11.26
117 45 0 0 0 0 0 0 -11.7918
121.5 45 0 0 0 0 0 0 -12.2455
126 45 0 0 0 0 0 0 -12.7135
130.5 45 0 0 0 0 0 0 -13.9746
135 45 0 0 0 0 0 0 -15.542
139.5 45 0 0 0 0 0 0 -17.0876
144 45 0 0 0 0 0 0 -18.2835
148.5 45 0 0 0 0 0 0 -19.503
153 45 0 0 0 0 0 0 -21.8693
157.5 45 0 0 0 0 0 0 -25.22
162 45 0 0 0 0 0 0 -29.393
166.5 45 0 0 0 0 0 0 -27.9778
171 45 0 0 0 0 0 0 -28.1642
175.5 45 0 0 0 0 0 0 -30.1601
180 45 0 0 0 0 0 0 -35.001
0 52.5 0 0 0 0 0 0 5.681
4.5 52.5 0 0 0 0 0 0 5.6405
9 52.5 0 0 0 0 0 0 5.52313
13.5 52.5 0 0 0 0 0 0 5.31575
18 52.5 0 0 0 0 0 0 5.00525
22.5 52.5 0 0 0 0 0 0 4.62106
27 52.5 0 0 0 0 0 0 4.23762
31.5 52.5 0 0 0 0 0 0 3.82344
36 52.5 0 0 0 0 0 0 3.347
40.5 52.5 0 0 0 0 0 0 2.648
45 52.5 0 0 0 0 0 0 1.85175
49.5 52.5 0 0 0 0 0 0 1.04519
54 52.5 0 0 0 0 0 0 0.31525
58.5 52.5 0 0 0 0 0 0 -0.260937
63 52.5 0 0 0 0 0 0 -0.93775
67.5 52.5 0 0 0 0 0 0 -1.74094
72 52.5 0 0 0 0 0 0 -2.69625
76.5 52.5 0 0 0 0 0 0 -3.52369
81 52.5 0 0 0 0 0 0 -4.19125
85.5 52.5 0 0 0 0 0 0 -4.859
90 52.5 0 0 0 0 0 0 -5.687
94.5 52.5 0 0 0 0 0 0 -6.9905
99 52.5 0 0 0 0 0 0 -8.32375
103.5 52.5 0 0 0 0 0 0 -9.52119
108 52.5 0 0 0 0 0 0 -10.4172
112.5 52.5 0 0 0 0 0 0 -11.0371
117 52.5 0 0 0 0 0 0 -11.5314
121.5 52.5 0 0 0 0 0 0 -11.9864
126 52.5 0 0 0 0 0 0 -12.4885
130.5 52.5 0 0 0 0 0 0 -13.7515
135 52.5 0 0 0 0 0 0 -15.2918
139.5 52.5 0 0 0 0 0 0 -16.8094
144 52.5 0 0 0 0 0 0 -18.0048
148.5 52.5 0 0 0 0 0 0 -19.3471
153 52.5 0 0 0 0 0 0 -21.7925
157.5 52.5 0 0 0 0 0 0 -25.0373
162 52.5 0 0 0 0 0 0 -28.7778
166.5 52.5 0 0 0 0 0 0 -27.6573
171 52.5 0 0 0 0 0 0 -28.0493
175.5 52.5 0 0 0 0 0 0 -30.1543
180 52.5 0 0 0 0 0 0 -34.587
0 60 0 0 0 0 0 0 5.681
4.5 60 0 0 0 0 0 0 5.63225
9 60 0 0 0 0 0 0 5.506
13.5 60 0 0 0 0 0 0 5.29175
18 60 0 0 0 0 0 0 4.979
22.5 60 0 0 0 0 0 0 4.601
27 60 0 0 0 0 0 0 4.221
31.5 60 0 0 0 0 0 0 3.80575
36 60 0 0 0 0 0 0 3.322
40.5 60 0 0 0 0 0 0 2.61775
45 60 0 0 0 0 0 0 1.82
49.5 60 0 0 0 0 0 0 1.01075
54 60 0 0 0 0 0 0 0.272
58.5 60 0 0 0 0 0 0 -0.31975
63 60 0 0 0 0 0 0 -1.0075
67.5 60 0 0 0 0 0 0 -1.81925
72 60 0 0 0 0 0 0 -2.783
76.5 60 0 0 0 0 0 0 -3.626
81 60 0 0 0 0 0 0 -4.309
85.5 60 0 0 0 0 0 0 -4.97775
90 60 0 0 0 0 0 0 -5.778
94.5 60 0 0 0 0 0 0 -6.97575
99 60 0 0 0 0 0 0 -8.1915
103.5 60 0 0 0 0 0 0 -9.3025
108 60 0 0 0 0 0 0 -10.186
112.5 60 0 0 0 0 0 0 -10.8603
117 60 0 0 0 0 0 0 -11.384
121.5 60 0 0 0 0 0 0 -11.855
126 60 0 0 0 0 0 0 -12.371
130.5 60 0 0 0 0 0 0 -13.649
135 60 0 0 0 0 0 0 -15.181
139.5 60 0 0 0 0 0 0 -16.686
144 60 0 0 0 0 0 0 -17.883
148.5 60 0 0 0 0 0 0 -19.2863
153 60 0 0 0 0 0 0 -21.6945
157.5 60 0 0 0 0 0 0 -24.7498
162 60 0 0 0 0 0 0 -28.094
166.5 60 0 0 0 0 0 0 -27.4445
171 60 0 0 0 0 0 0 -28.0915
175.5 60 0 0 0 0 0 0 -30.2595
180 60 0 0 0 0 0 0 -34.173
0 67.5 0 0 0 0 0 0 5.681
4.5 67.5 0 0 0 0 0 0 5.62363
9 67.5 0 0 0 0 0 0 5.48763
13.5 67.5 0 0 0 0 0 0 5.26419
18 67.5 0 0 0 0 0 0 4.9445
22.5 67.5 0 0 0 0 0 0 4.56631
27 67.5 0 0 0 0 0 0 4.18762
31.5 67.5 0 0 0 0 0 0 3.77181
36 67.5 0 0 0 0 0 0 3.28225
40.5 67.5 0 0 0 0 0 0 2.56806
45 67.5 0 0 0 0 0 0 1.76338
49.5 67.5 0 0 0 0 0 0 0.9455
54 67.5 0 0 0 0 0 0 0.19175
58.5 67.5 0 0 0 0 0 0 -0.42925
63 67.5 0 0 0 0 0 0 -1.13262
67.5 67.5 0 0 0 0 0 0 -1.94669
72 67.5 0 0 0 0 0 0 -2.89975
76.5 67.5 0 0 0 0 0 0 -3.74763
81 67.5 0 0 0 0 0 0 -4.4365
85.5 67.5 0 0 0 0 0 0 -5.09831
90 67.5 0 0 0 0 0 0 -5.865
94.5 67.5 0 0 0 0 0 0 -6.96394
99 67.5 0 0 0 0 0 0 -8.07525
103.5 67.5 0 0 0 0 0 0 -9.12306
108 67.5 0 0 0 0 0 0 -10.0315
112.5 67.5 0 0 0 0 0 0 -10.8068
117 67.5 0 0 0 0 0 0 -11.3896
121.5 67.5 0 0 0 0 0 0 -11.888
126 67.5 0 0 0 0 0 0 -12.41
130.5 67.5 0 0 0 0 0 0 -13.7071
135 67.5 0 0 0 0 0 0 -15.2369
139.5 67.5 0 0 0 0 0 0 -16.727
144 67.5 0 0 0 0 0 0 -17.9052
148.5 67.5 0 0 0 0 0 0 -19.2877
153 67.5 0 0 0 0 0 0 -21.5571
157.5 67.5 0 0 0 0 0 0 -24.4096
162 67.5 0 0 0 0 0 0 -27.5412
166.5 67.5 0 0 0 0 0 0 -27.4244
171 67.5 0 0 0 0 0 0 -28.3271
175.5 67.5 0 0 0 0 0 0 -30.4948
180 67.5 0 0 0 0 0 0 -35.415
0 75 0 0 0 0 0 0 5.681
4.5 75 0 0 0 0 0 0 5.61463
9 75 0 0 0 0 0 0 5.4685
13.5 75 0 0 0 0 0 0 5.23487
18 75 0 0 0 0 0 0 4.906
22.5 75 0 0 0 0 0 0 4.52125
27 75 0 0 0 0 0 0 4.13825
31.5 75 0 0 0 0 0 0 3.71775
36 75 0 0 0 0 0 0 3.2205
40.5 75 0 0 0 0 0 0 2.4885
45 75 0 0 0 0 0 0 1.67075
49.5 75 0 0 0 0 0 0 0.84175
54 75 0 0 0 0 0 0 0.076
58.5 75 0 0 0 0 0 0 -0.566
63 75 0 0 0 0 0 0 -1.279
67.5 75 0 0 0 0 0 0 -2.0895
72 75 0 0 0 0 0 0 -3.024
76.5 75 0 0 0 0 0 0 -3.86175
81 75 0 0 0 0 0 0 -4.53575
85.5 75 0 0 0 0 0 0 -5.17175
90 75 0 0 0 0 0 0 -5.8955
94.5 75 0 0 0 0 0 0 -6.9455
99 75 0 0 0 0 0 0 -8.0215
103.5 75 0 0 0 0 0 0 -9.0605
108 75 0 0 0 0 0 0 -9.9995
112.5 75 0 0 0 0 0 0 -10.8301
117 75 0 0 0 0 0 0 -11.4585
121.5 75 0 0 0 0 0 0 -11.9985
126 75 0 0 0 0 0 0 -12.564
130.5 75 0 0 0 0 0 0 -13.8836
135 75 0 0 0 0 0 0 -15.3933
139.5 75 0 0 0 0 0 0 -16.8466
144 75 0 0 0 0 0 0 -17.9975
148.5 75 0 0 0 0 0 0 -19.3561
153 75 0 0 0 0 0 0 -21.5063
157.5 75 0 0 0 0 0 0 -24.2269
162 75 0 0 0 0 0 0 -27.297
166.5 75 0 0 0 0 0 0 -27.6285
171 75 0 0 0 0 0 0 -28.736
175.5 75 0 0 0 0 0 0 -30.843
180 75 0 0 0 0 0 0 -35.001
0 82.5 0 0 0 0 0 0 5.681
4.5 82.5 0 0 0 0 0 0 5.60619
9 82.5 0 0 0 0 0 0 5.45012
13.5 82.5 0 0 0 0 0 0 5.20613
18 82.5 0 0 0 0 0 0 4.8675
22.5 82.5 0 0 0 0 0 0 4.47056
27 82.5 0 0 0 0 0 0 4.07725
31.5 82.5 0 0 0 0 0 0 3.64681
36 82.5 0 0 0 0 0 0 3.1385
40.5 82.5 0 0 0 0 0 0 2.387
45 82.5 0 0 0 0 0 0 1.55112
49.5 82.5 0 0 0 0 0 0 0.709125
54 82.5 0 0 0 0 0 0 -0.06075
58.5 82.5 0 0 0 0 0 0 -0.70575
63 82.5 0 0 0 0 0 0 -1.4175
67.5 82.5 0 0 0 0 0 0 -2.21806
72 82.5 0 0 0 0 0 0 -3.1295
76.5 82.5 0 0 0 0 0 0 -3.93969
81 82.5 0 0 0 0 0 0 -4.59075
85.5 82.5 0 0 0 0 0 0 -5.20338
90 82.5 0 0 0 0 0 0 -5.89825
94.5 82.5 0 0 0 0 0 0 -6.91113
99 82.5 0 0 0 0 0 0 -7.9805
103.5 82.5 0 0 0 0 0 0 -9.05306
108 82.5 0 0 0 0 0 0 -10.0755
112.5 82.5 0 0 0 0 0 0 -10.9851
117 82.5 0 0 0 0 0 0 -11.6661
121.5 82.5 0 0 0 0 0 0 -12.2483
126 82.5 0 0 0 0 0 0 -12.8612
130.5 82.5 0 0 0 0 0 0 -14.1978
135 82.5 0 0 0 0 0 0 -15.6644
139.5 82.5 0 0 0 0 0 0 -17.0591
144 82.5 0 0 0 0 0 0 -18.1797
148.5 82.5 0 0 0 0 0 0 -19.5674
153 82.5 0 0 0 0 0 0 -21.6913
157.5 82.5 0 0 0 0 0 0 -24.3824
162 82.5 0 0 0 0 0 0 -27.472
166.5 82.5 0 0 0 0 0 0 -28.0769
171 82.5 0 0 0 0 0 0 -29.3144
175.5 82.5 0 0 0 0 0 0 -31.3059
180 82.5 0 0 0 0 0 0 -34.587
0 90 0 0 0 0 0 0 5.681
4.5 90 0 0 0 0 0 0 5.59775
9 90 0 0 0 0 0 0 5.432
13.5 90 0 0 0 0 0 0 5.17875
18 90 0 0 0 0 0 0 4.833
22.5 90 0 0 0 0 0 0 4.42275
27 90 0 0 0 0 0 0 4.013
31.5 90 0 0 0 0 0 0 3.56675
36 90 0 0 0 0 0 0 3.047
40.5 90 0 0 0 0 0 0 2.2805
45 90 0 0 0 0 0 0 1.425
49.5 90 0 0 0 0 0 0 0.56775
54 90 0 0 0 0 0 0 -0.204
58.5 90 0 0 0 0 0 0 -0.82875
63 90 0 0 0 0 0 0 -1.523
67.5 90 0 0 0 0 0 0 -2.30575
72 90 0 0 0 0 0 0 -3.196
76.5 90 0 0 0 0 0 0 -3.96625
81 90 0 0 0 0 0 0 -4.591
85.5 90 0 0 0 0 0 0 -5.19375
90 90 0 0 0 0 0 0 -5.898
94.5 90 0 0 0 0 0 0 -6.8985
99 90 0 0 0 0 0 0 -7.9715
103.5 90 0 0 0 0 0 0 -9.089
108 90 0 0 0 0 0 0 -10.223
112.5 90 0 0 0 0 0 0 -11.2505
117 90 0 0 0 0 0 0 -11.9915
121.5 90 0 0 0 0 0 0 -12.6055
126 90 0 0 0 0 0 0 -13.252
130.5 90 0 0 0 0 0 0 -14.6365
135 90 0 0 0 0 0 0 -16.0895
139.5 90 0 0 0 0 0 0 -17.445
144 90 0 0 0 0 0 0 -18.537
148.5 90 0 0 0 0 0 0 -20.0138
153 90 0 0 0 0 0 0 -22.2205
157.5 90 0 0 0 0 0 0 -24.9715
162 90 0 0 0 0 0 0 -28.081
166.5 90 0 0 0 0 0 0 -28.7372
171 90 0 0 0 0 0 0 -30.0405
175.5 90 0 0 0 0 0 0 -31.887
180 90 0 0 0 0 0 0 -34.173
0 97.5 0 0 0 0 0 0 5.681
4.5 97.5 0 0 0 0 0 0 5.5895
9 97.5 0 0 0 0 0 0 5.4155
13.5 97.5 0 0 0 0 0 0 5.15537
18 97.5 0 0 0 0 0 0 4.8055
22.5 97.5 0 0 0 0 0 0 4.38475
27 97.5 0 0 0 0 0 0 3.9565
31.5 97.5 0 0 0 0 0 0 3.48981
36 97.5 0 0 0 0 0 0 2.95375
40.5 97.5 0 0 0 0 0 0 2.17525
45 97.5 0 0 0 0 0 0 1.303
49.5 97.5 0 0 0 0 0 0 0.434125
54 97.5 0 0 0 0 0 0 -0.33425
58.5 97.5 0 0 0 0 0 0 -0.91325
63 97.5 0 0 0 0 0 0 -1.5635
67.5 97.5 0 0 0 0 0 0 -2.31275
72 97.5 0 0 0 0 0 0 -3.18875
76.5 97.5 0 0 0 0 0 0 -3.95431
81 97.5 0 0 0 0 0 0 -4.57688
85.5 97.5 0 0 0 0 0 0 -5.18187
90 97.5 0 0 0 0 0 0 -5.89475
94.5 97.5 0 0 0 0 0 0 -6.91156
99 97.5 0 0 0 0 0 0 -8.01325
103.5 97.5 0 0 0 0 0 0 -9.18137
108 97.5 0 0 0 0 0 0 -10.3975
112.5 97.5 0 0 0 0 0 0 -11.5143
117 97.5 0 0 0 0 0 0 -12.3159
121.5 97.5 0 0 0 0 0 0 -12.9844
126 97.5 0 0 0 0 0 0 -13.702
130.5 97.5 0 0 0 0 0 0 -15.2133
135 97.5 0 0 0 0 0 0 -16.7434
139.5 97.5 0 0 0 0 0 0 -18.1234
144 97.5 0 0 0 0 0 0 -19.1845
148.5 97.5 0 0 0 0 0 0 -20.7745
153 97.5 0 0 0 0 0 0 -23.1412
157.5 97.5 0 0 0 0 0 0 -25.9752
162 97.5 0 0 0 0 0 0 -28.967
166.5 97.5 0 0 0 0 0 0 -29.4877
171 97.5 0 0 0 0 0 0 -30.88
175.5 97.5 0 0 0 0 0 0 -32.6173
180 97.5 0 0 0 0 0 0 -34.173
0 105 0 0 0 0 0 0 5.681
4.5 105 0 0 0 0 0 0 5.58237
9 105 0 0 0 0 0 0 5.40075
13.5 105 0 0 0 0 0 0 5.13512
18 105 0 0 0 0 0 0 4.7845
22.5 105 0 0 0 0 0 0 4.35887
27 105 0 0 0 0 0 0 3.91525
31.5 105 0 0 0 0 0 0 3.4275
36 105 0 0 0 0 0 0 2.8695
40.5 105 0 0 0 0 0 0 2.08013
45 105 0 0 0 0 0 0 1.1995
49.5 105 0 0 0 0 0 0 0.3315
54 105 0 0 0 0 0 0 -0.42
58.5 105 0 0 0 0 0 0 -0.948375
63 105 0 0 0 0 0 0 -1.552
67.5 105 0 0 0 0 0 0 -2.26812
72 105 0 0 0 0 0 0 -3.134
76.5 105 0 0 0 0 0 0 -3.92263
81 105 0 0 0 0 0 0 -4.56125
85.5 105 0 0 0 0 0 0 -5.16962
90 105 0 0 0 0 0 0 -5.8675
94.5 105 0 0 0 0 0 0 -6.90625
99 105 0 0 0 0 0 0 -8.07025
103.5 105 0 0 0 0 0 0 -9.32188
108 105 0 0 0 0 0 0 -10.6235
112.5 105 0 0 0 0 0 0 -11.8231
117 105 0 0 0 0 0 0 -12.7263
121.5 105 0 0 0 0 0 0 -13.5002
126 105 0 0 0 0 0 0 -14.3125
130.5 105 0 0 0 0 0 0 -15.9295
135 105 0 0 0 0 0 0 -17.5517
139.5 105 0 0 0 0 0 0 -18.9778
144 105 0 0 0 0 0 0 -20.006
148.5 105 0 0 0 0 0 0 -21.6766
153 105 0 0 0 0 0 0 -24.157
157.5 105 0 0 0 0 0 0 -26.958
162 105 0 0 0 0 0 0 -29.5905
166.5 105 0 0 0 0 0 0 -30.0862
171 105 0 0 0 0 0 0 -31.7605
175.5 105 0 0 0 0 0 0 -33.4955
180 105 0 0 0 0 0 0 -34.1735
0 112.5 0 0 0 0 0 0 5.681
4.5 112.5 0 0 0 0 0 0 5.57581
9 112.5 0 0 0 0 0 0 5.38675
13.5 112.5 0 0 0 0 0 0 5.11637
18 112.5 0 0 0 0 0 0 4.76725
22.5 112.5 0 0 0 0 0 0 4.34462
27 112.5 0 0 0 0 0 0 3.89425
31.5 112.5 0 0 0 0 0 0 3.39294
36 112.5 0 0 0 0 0 0 2.8175
40.5 112.5 0 0 0 0 0 0 2.02119
45 112.5 0 0 0 0 0 0 1.1455
49.5 112.5 0 0 0 0 0 0 0.2975
54 112.5 0 0 0 0 0 0 -0.41575
58.5 112.5 0 0 0 0 0 0 -0.89575
63 112.5 0 0 0 0 0 0 -1.46513
67.5 112.5 0 0 0 0 0 0 -2.16125
72 112.5 0 0 0 0 0 0 -3.0215
76.5 112.5 0 0 0 0 0 0 -3.82306
81 112.5 0 0 0 0 0 0 -4.47175
85.5 112.5 0 0 0 0 0 0 -5.08275
90 112.5 0 0 0 0 0 0 -5.77125
94.5 112.5 0 0 0 0 0 0 -6.85219
99 112.5 0 0 0 0 0 0 -8.10887
103.5 112.5 0 0 0 0 0 0 -9.474
108 112.5 0 0 0 0 0 0 -10.8803
112.5 112.5 0 0 0 0 0 0 -12.1706
117 112.5 0 0 0 0 0 0 -13.1974
121.5 112.5 0 0 0 0 0 0 -14.0811
126 112.5 0 0 0 0 0 0 -14.9425
130.5 112.5 0 0 0 0 0 0 -16.5567
135 112.5 0 0 0 0 0 0 -18.2371
139.5 112.5 0 0 0 0 0 0 -19.7261
144 112.5 0 0 0 0 0 0 -20.766
148.5 112.5 0 0 0 0 0 0 -22.4261
153 112.5 0 0 0 0 0 0 -24.8158
157.5 112.5 0 0 0 0 0 0 -27.3687
162 112.5 0 0 0 0 0 0 -29.5188
166.5 112.5 0 0 0 0 0 0 -30.3895
171 112.5 0 0 0 0 0 0 -32.6807
175.5 112.5 0 0 0 0 0 0 -34.5548
180 112.5 0 0 0 0 0 0 -34.174
0 120 0 0 0 0 0 0 5.681
4.5 120 0 0 0 0 0 0 5.57075
9 120 0 0 0 0 0 0 5.3745
13.5 120 0 0 0 0 0 0 5.09875
18 120 0 0 0 0 0 0 4.75
22.5 120 0 0 0 0 0 0 4.33675
27 120 0 0 0 0 0 0 3.8925
31.5 120 0 0 0 0 0 0 3.39325
36 120 0 0 0 0 0 0 2.815
40.5 120 0 0 0 0 0 0 2.02375
45 120 0 0 0 0 0 0 1.1645
49.5 120 0 0 0 0 0 0 0.3455
54 120 0 0 0 0 0 0 -0.325
58.5 120 0 0 0 0 0 0 -0.76375
63 120 0 0 0 0 0 0 -1.307
67.5 120 0 0 0 0 0 0 -1.9905
72 120 0 0 0 0 0 0 -2.85
76.5 120 0 0 0 0 0 0 -3.6615
81 120 0 0 0 0 0 0 -4.3295
85.5 120 0 0 0 0 0 0 -4.96975
90 120 0 0 0 0 0 0 -5.698
94.5 120 0 0 0 0 0 0 -6.85
99 120 0 0 0 0 0 0 -8.2045
103.5 120 0 0 0 0 0 0 -9.675
108 120 0 0 0 0 0 0 -11.175
112.5 120 0 0 0 0 0 0 -12.5145
117 120 0 0 0 0 0 0 -13.581
121.5 120 0 0 0 0 0 0 -14.4605
126 120 0 0 0 0 0 0 -15.239
130.5 120 0 0 0 0 0 0 -16.7285
135 120 0 0 0 0 0 0 -18.4205
139.5 120 0 0 0 0 0 0 -19.9892
144 120 0 0 0 0 0 0 -21.109
148.5 120 0 0 0 0 0 0 -22.633
153 120 0 0 0 0 0 0 -24.7255
157.5 120 0 0 0 0 0 0 -26.947
162 120 0 0 0 0 0 0 -28.858
166.5 120 0 0 0 0 0 0 -30.4862
171 120 0 0 0 0 0 0 -33.719
175.5 120 0 0 0 0 0 0 -35.8503
180 120 0 0 0 0 0 0 -34.174
0 127.5 0 0 0 0 0 0 5.681
4.5 127.5 0 0 0 0 0 0 5.56719
9 127.5 0 0 0 0 0 0 5.36362
13.5 127.5 0 0 0 0 0 0 5.08094
18 127.5 0 0 0 0 0 0 4.72975
22.5 127.5 0 0 0 0 0 0 4.32925
27 127.5 0 0 0 0 0 0 3.90088
31.5 127.5 0 0 0 0 0 0 3.41819
36 127.5 0 0 0 0 0 0 2.85475
40.5 127.5 0 0 0 0 0 0 2.08338
45 127.5 0 0 0 0 0 0 1.24937
49.5 127.5 0 0 0 0 0 0 0.457688
54 127.5 0 0 0 0 0 0 -0.18675
58.5 127.5 0 0 0 0 0 0 -0.609187
63 127.5 0 0 0 0 0 0 -1.14438
67.5 127.5 0 0 0 0 0 0 -1.82931
72 127.5 0 0 0 0 0 0 -2.701
76.5 127.5 0 0 0 0 0 0 -3.535
81 127.5 0 0 0 0 0 0 -4.23838
85.5 127.5 0 0 0 0 0 0 -4.931
90 127.5 0 0 0 0 0 0 -5.73275
94.5 127.5 0 0 0 0 0 0 -6.96725
99 127.5 0 0 0 0 0 0 -8.38875
103.5 127.5 0 0 0 0 0 0 -9.90106
108 127.5 0 0 0 0 0 0 -11.408
112.5 127.5 0 0 0 0 0 0 -12.6856
117 127.5 0 0 0 0 0 0 -13.6372
121.5 127.5 0 0 0 0 0 0 -14.3514
126 127.5 0 0 0 0 0 0 -14.9168
130.5 127.5 0 0 0 0 0 0 -16.2172
135 127.5 0 0 0 0 0 0 -17.8424
139.5 127.5 0 0 0 0 0 0 -19.4344
144 127.5 0 0 0 0 0 0 -20.6357
148.5 127.5 0 0 0 0 0 0 -22.0525
153 127.5 0 0 0 0 0 0 -23.9694
157.5 127.5 0 0 0 0 0 0 -26.1072
162 127.5 0 0 0 0 0 0 -28.1867
166.5 127.5 0 0 0 0 0 0 -30.6951
171 127.5 0 0 0 0 0 0 -35.0887
175.5 127.5 0 0 0 0 0 0 -37.5282
180 127.5 0 0 0 0 0 0 -34.174
0 135 0 0 0 0 0 0 5.6815
4.5 135 0 0 0 0 0 0 5.56488
9 135 0 0 0 0 0 0 5.35525
13.5 135 0 0 0 0 0 0 5.0655
18 135 0 0 0 0 0 0 4.7085
22.5 135 0 0 0 0 0 0 4.31775
27 135 0 0 0 0 0 0 3.905
31.5 135 0 0 0 0 0 0 3.44
36 135 0 0 0 0 0 0 2.8925
40.5 135 0 0 0 0 0 0 2.14363
45 135 0 0 0 0 0 0 1.34275
49.5 135 0 0 0 0 0 0 0.58875
54 135 0 0 0 0 0 0 -0.0195
58.5 135 0 0 0 0 0 0 -0.432
63 135 0 0 0 0 0 0 -0.9725
67.5 135 0 0 0 0 0 0 -1.67788
72 135 0 0 0 0 0 0 -2.585
76.5 135 0 0 0 0 0 0 -3.476
81 135 0 0 0 0 0 0 -4.24125
85.5 135 0 0 0 0 0 0 -5.00075
90 135 0 0 0 0 0 0 -5.8745
94.5 135 0 0 0 0 0 0 -7.169
99 135 0 0 0 0 0 0 -8.59975
103.5 135 0 0 0 0 0 0 -10.056
108 135 0 0 0 0 0 0 -11.427
112.5 135 0 0 0 0 0 0 -12.5032
117 135 0 0 0 0 0 0 -13.252
121.5 135 0 0 0 0 0 0 -13.7746
126 135 0 0 0 0 0 0 -14.1725
130.5 135 0 0 0 0 0 0 -15.3447
135 135 0 0 0 0 0 0 -16.8865
139.5 135 0 0 0 0 0 0 -18.4612
144 135 0 0 0 0 0 0 -19.7325
148.5 135 0 0 0 0 0 0 -21.228
153 135 0 0 0 0 0 0 -23.22
157.5 135 0 0 0 0 0 0 -25.5129
162 135 0 0 0 0 0 0 -27.911
166.5 135 0 0 0 0 0 0 -31.2526
171 135 0 0 0 0 0 0 -36.8585
175.5 135 0 0 0 0 0 0 -39.5564
180 135 0 0 0 0 0 0 -34.174
0 142.5 0 0 0 0 0 0 5.68125
4.5 142.5 0 0 0 0 0 0 5.56406
9 142.5 0 0 0 0 0 0 5.34987
13.5 142.5 0 0 0 0 0 0 5.05325
18 142.5 0 0 0 0 0 0 4.68875
22.5 142.5 0 0 0 0 0 0 4.30438
27 142.5 0 0 0 0 0 0 3.90275
31.5 142.5 0 0 0 0 0 0 3.45
36 142.5 0 0 0 0 0 0 2.91225
40.5 142.5 0 0 0 0 0 0 2.18138
45 142.5 0 0 0 0 0 0 1.41512
49.5 142.5 0 0 0 0 0 0 0.705187
54 142.5 0 0 0 0 0 0 0.14325
58.5 142.5 0 0 0 0 0 0 -0.259875
63 142.5 0 0 0 0 0 0 -0.81225
67.5 142.5 0 0 0 0 0 0 -1.54875
72 142.5 0 0 0 0 0 0 -2.50425
76.5 142.5 0 0 0 0 0 0 -3.47925
81 142.5 0 0 0 0 0 0 -4.33113
85.5 142.5 0 0 0 0 0 0 -5.16463
90 142.5 0 0 0 0 0 0 -6.0845
94.5 142.5 0 0 0 0 0 0 -7.36025
99 142.5 0 0 0 0 0 0 -8.69412
103.5 142.5 0 0 0 0 0 0 -9.97488
108 142.5 0 0 0 0 0 0 -11.0913
112.5 142.5 0 0 0 0 0 0 -11.9566
117 142.5 0 0 0 0 0 0 -12.5716
121.5 142.5 0 0 0 0 0 0 -13.0268
126 142.5 0 0 0 0 0 0 -13.4125
130.5 142.5 0 0 0 0 0 0 -14.5606
135 142.5 0 0 0 0 0 0 -16.0529
139.5 142.5 0 0 0 0 0 0 -17.6127
144 142.5 0 0 0 0 0 0 -18.9635
148.5 142.5 0 0 0 0 0 0 -20.6604
153 142.5 0 0 0 0 0 0 -22.8505
157.5 142.5 0 0 0 0 0 0 -25.3822
162 142.5 0 0 0 0 0 0 -28.104
166.5 142.5 0 0 0 0 0 0 -32.2131
171 142.5 0 0 0 0 0 0 -38.665
175.5 142.5 0 0 0 0 0 0 -41.3539
180 142.5 0 0 0 0 0 0 -34.174
0 150 0 0 0 0 0 0 5.681
4.5 150 0 0 0 0 0 0 5.5655
9 150 0 0 0 0 0 0 5.349
13.5 150 0 0 0 0 0 0 5.04725
18 150 0 0 0 0 0 0 4.676
22.5 150 0 0 0 0 0 0 4.295
27 150 0 0 0 0 0 0 3.9015
31.5 150 0 0 0 0 0 0 3.459
36 150 0 0 0 0 0 0 2.931
40.5 150 0 0 0 0 0 0 2.21925
45 150 0 0 0 0 0 0 1.484
49.5 150 0 0 0 0 0 0 0.80625
54 150 0 0 0 0 0 0 0.267
58.5 150 0 0 0 0 0 0 -0.1575
63 150 0 0 0 0 0 0 -0.747
67.5 150 0 0 0 0 0 0 -1.52875
72 150 0 0 0 0 0 0 -2.53
76.5 150 0 0 0 0 0 0 -3.562
81 150 0 0 0 0 0 0 -4.4725
85.5 150 0 0 0 0 0 0 -5.341
90 150 0 0 0 0 0 0 -6.247
94.5 150 0 0 0 0 0 0 -7.39
99 150 0 0 0 0 0 0 -8.523
103.5 150 0 0 0 0 0 0 -9.57975
108 150 0 0 0 0 0 0 -10.494
112.5 150 0 0 0 0 0 0 -11.316
117 150 0 0 0 0 0 0 -11.967
121.5 150 0 0 0 0 0 0 -12.5107
126 150 0 0 0 0 0 0 -13.011
130.5 150 0 0 0 0 0 0 -14.2043
135 150 0 0 0 0 0 0 -15.691
139.5 150 0 0 0 0 0 0 -17.2593
144 150 0 0 0 0 0 0 -18.697
148.5 150 0 0 0 0 0 0 -20.59
153 150 0 0 0 0 0 0 -22.945
157.5 150 0 0 0 0 0 0 -25.653
162 150 0 0 0 0 0 0 -28.605
166.5 150 0 0 0 0 0 0 -33.3128
171 150 0 0 0 0 0 0 -39.2205
175.5 150 0 0 0 0 0 0 -41.2127
180 150 0 0 0 0 0 0 -34.174
0 157.5 0 0 0 0 0 0 5.681
4.5 157.5 0 0 0 0 0 0 5.5685
9 157.5 0 0 0 0 0 0 5.353
13.5 157.5 0 0 0 0 0 0 5.05044
18 157.5 0 0 0 0 0 0 4.67675
22.5 157.5 0 0 0 0 0 0 4.29819
27 157.5 0 0 0 0 0 0 3.91312
31.5 157.5 0 0 0 0 0 0 3.48513
36 157.5 0 0 0 0 0 0 2.97775
40.5 157.5 0 0 0 0 0 0 2.30012
45 157.5 0 0 0 0 0 0 1.59575
49.5 157.5 0 0 0 0 0 0 0.932812
54 157.5 0 0 0 0 0 0 0.3795
58.5 157.5 0 0 0 0 0 0 -0.100125
63 157.5 0 0 0 0 0 0 -0.748625
67.5 157.5 0 0 0 0 0 0 -1.58481
72 157.5 0 0 0 0 0 0 -2.6275
76.5 157.5 0 0 0 0 0 0 -3.67262
81 157.5 0 0 0 0 0 0 -4.5725
85.5 157.5 0 0 0 0 0 0 -5.39694
90 157.5 0 0 0 0 0 0 -6.21575
94.5 157.5 0 0 0 0 0 0 -7.20931
99 157.5 0 0 0 0 0 0 -8.22663
103.5 157.5 0 0 0 0 0 0 -9.23531
108 157.5 0 0 0 0 0 0 -10.203
112.5 157.5 0 0 0 0 0 0 -11.1195
117 157.5 0 0 0 0 0 0 -11.8487
121.5 157.5 0 0 0 0 0 0 -12.4705
126 157.5 0 0 0 0 0 0 -13.0645
130.5 157.5 0 0 0 0 0 0 -14.3239
135 157.5 0 0 0 0 0 0 -15.8504
139.5 157.5 0 0 0 0 0 0 -17.4596
144 157.5 0 0 0 0 0 0 -18.9672
148.5 157.5 0 0 0 0 0 0 -20.9146
153 157.5 0 0 0 0 0 0 -23.2371
157.5 157.5 0 0 0 0 0 0 -25.8852
162 157.5 0 0 0 0 0 0 -28.8095
166.5 157.5 0 0 0 0 0 0 -33.4316
171 157.5 0 0 0 0 0 0 -37.8426
175.5 157.5 0 0 0 0 0 0 -39.0782
180 157.5 0 0 0 0 0 0 -34.174
0 165 0 0 0 0 0 0 5.681
4.5 165 0 0 0 0 0 0 5.573
9 165 0 0 0 0 0 0 5.36225
13.5 165 0 0 0 0 0 0 5.06313
18 165 0 0 0 0 0 0 4.69
22.5 165 0 0 0 0 0 0 4.31575
27 165 0 0 0 0 0 0 3.94025
31.5 165 0 0 0 0 0 0 3.52813
36 165 0 0 0 0 0 0 3.044
40.5 165 0 0 0 0 0 0 2.40238
45 165 0 0 0 0 0 0 1.72275
49.5 165 0 0 0 0 0 0 1.06187
54 165 0 0 0 0 0 0 0.4765
58.5 165 0 0 0 0 0 0 -0.0605
63 165 0 0 0 0 0 0 -0.7565
67.5 165 0 0 0 0 0 0 -1.62962
72 165 0 0 0 0 0 0 -2.698
76.5 165 0 0 0 0 0 0 -3.73262
81 165 0 0 0 0 0 0 -4.57775
85.5 165 0 0 0 0 0 0 -5.31137
90 165 0 0 0 0 0 0 -6.0115
94.5 165 0 0 0 0 0 0 -6.92725
99 165 0 0 0 0 0 0 -7.97575
103.5 165 0 0 0 0 0 0 -9.11875
108 165 0 0 0 0 0 0 -10.318
112.5 165 0 0 0 0 0 0 -11.3676
117 165 0 0 0 0 0 0 -12.1355
121.5 165 0 0 0 0 0 0 -12.7557
126 165 0 0 0 0 0 0 -13.3625
130.5 165 0 0 0 0 0 0 -14.6435
135 165 0 0 0 0 0 0 -16.1665
139.5 165 0 0 0 0 0 0 -17.754
144 165 0 0 0 0 0 0 -19.2285
148.5 165 0 0 0 0 0 0 -21.0461
153 165 0 0 0 0 0 0 -23.1262
157.5 165 0 0 0 0 0 0 -25.4868
162 165 0 0 0 0 0 0 -28.1455
166.5 165 0 0 0 0 0 0 -32.1224
171 165 0 0 0 0 0 0 -35.7065
175.5 165 0 0 0 0 0 0 -37.0172
180 165 0 0 0 0 0 0 -34.174
0 172.5 0 0 0 0 0 0 5.681
4.5 172.5 0 0 0 0 0 0 5.57919
9 172.5 0 0 0 0 0 0 5.376
13.5 172.5 0 0 0 0 0 0 5.08369
18 172.5 0 0 0 0 0 0 4.7145
22.5 172.5 0 0 0 0 0 0 4.34456
27 172.5 0 0 0 0 0 0 3.9775
31.5 172.5 0 0 0 0 0 0 3.57844
36 172.5 0 0 0 0 0 0 3.1125
40.5 172.5 0 0 0 0 0 0 2.48944
45 172.5 0 0 0 0 0 0 1.8115
49.5 172.5 0 0 0 0 0 0 1.12869
54 172.5 0 0 0 0 0 0 0.491
58.5 172.5 0 0 0 0 0 0 -0.106188
63 172.5 0 0 0 0 0 0 -0.83975
67.5 172.5 0 0 0 0 0 0 -1.73013
72 172.5 0 0 0 0 0 0 -2.79775
76.5 172.5 0 0 0 0 0 0 -3.79881
81 172.5 0 0 0 0 0 0 -4.57963
85.5 172.5 0 0 0 0 0 0 -5.23931
90 172.5 0 0 0 0 0 0 -5.877
94.5 172.5 0 0 0 0 0 0 -6.81281
99 172.5 0 0 0 0 0 0 -7.97088
103.5 172.5 0 0 0 0 0 0 -9.29244
108 172.5 0 0 0 0 0 0 -10.7188
112.5 172.5 0 0 0 0 0 0 -11.8509
117 172.5 0 0 0 0 0 0 -12.6041
121.5 172.5 0 0 0 0 0 0 -13.1625
126 172.5 0 0 0 0 0 0 -13.71
130.5 172.5 0 0 0 0 0 0 -14.9113
135 172.5 0 0 0 0 0 0 -16.3015
139.5 172.5 0 0 0 0 0 0 -17.7233
144 172.5 0 0 0 0 0 0 -19.0195
148.5 172.5 0 0 0 0 0 0 -20.5949
153 172.5 0 0 0 0 0 0 -22.3629
157.5 172.5 0 0 0 0 0 0 -24.3908
162 172.5 0 0 0 0 0 0 -26.7458
166.5 172.5 0 0 0 0 0 0 -30.1624
171 172.5 0 0 0 0 0 0 -33.555
175.5 172.5 0 0 0 0 0 0 -35.4001
180 172.5 0 0 0 0 0 0 -34.174
0 180 0 0 0 0 0 0 5.681
4.5 180 0 0 0 0 0 0 5.5865
9 180 0 0 0 0 0 0 5.3925
13.5 180 0 0 0 0 0 0 5.109
18 180 0 0 0 0 0 0 4.746
22.5 180 0 0 0 0 0 0 4.37925
27 180 0 0 0 0 0 0 4.02
31.5 180 0 0 0 0 0 0 3.63175
36 180 0 0 0 0 0 0 3.178
40.5 180 0 0 0 0 0 0 2.55325
45 180 0 0 0 0 0 0 1.855
49.5 180 0 0 0 0 0 0 1.13275
54 180 0 0 0 0 0 0 0.436
58.5 180 0 0 0 0 0 0 -0.215
63 180 0 0 0 0 0 0 -0.98
67.5 180 0 0 0 0 0 0 -1.88225
72 180 0 0 0 0 0 0 -2.945
76.5 180 0 0 0 0 0 0 -3.9095
81 180 0 0 0 0 0 0 -4.636
85.5 180 0 0 0 0 0 0 -5.25275
90 180 0 0 0 0 0 0 -5.888
94.5 180 0 0 0 0 0 0 -6.914
99 180 0 0 0 0 0 0 -8.195
103.5 180 0 0 0 0 0 0 -9.64125
108 180 0 0 0 0 0 0 -11.163
112.5 180 0 0 0 0 0 0 -12.2393
117 180 0 0 0 0 0 0 -12.8895
121.5 180 0 0 0 0 0 0 -13.3193
126 180 0 0 0 0 0 0 -13.734
130.5 180 0 0 0 0 0 0 -14.772
135 180 0 0 0 0 0 0 -15.9665
139.5 180 0 0 0 0 0 0 -17.1845
144 180 0 0 0 0 0 0 -18.293
148.5 180 0 0 0 0 0 0 -19.6812
153 180 0 0 0 0 0 0 -21.2345
157.5 180 0 0 0 0 0 0 -23.044
162 180 0 0 0 0 0 0 -25.201
166.5 180 0 0 0 0 0 0 -28.3442
171 180 0 0 0 0 0 0 -31.797
175.5 180 0 0 0 0 0 0 -34.195
180 180 0 0 0 0 0 0 -34.174
0 187.5 0 0 0 0 0 0 5.681
4.5 187.5 0 0 0 0 0 0 5.59494
9 187.5 0 0 0 0 0 0 5.41125
13.5 187.5 0 0 0 0 0 0 5.13731
18 187.5 0 0 0 0 0 0 4.7805
22.5 187.5 0 0 0 0 0 0 4.41431