##File Type: Far field
#Frequency: 1.57542E+009
#No. of Theta Samples: 47
#No. of Phi Samples: 2
#Far Field Type: Gain
#No. of Header Lines: 1
#    "Theta"    "Phi"    "Re(Etheta)"    "Im(Etheta)"    "Re(Ephi)"    "Im(Ephi)"    "Gain(Theta)"    "Gain(Phi)"    "Gain(Total)"
0.000000000000E+000 0.000000000000E+000 0.0000000000E+000 0.0000000000E+000 0.0000000000E+000 0.0000000000E+000 0.0000000000E+000 0.0000000000E+000 -5.5000000000E+001
2.500000000000E+000 0.000000000000E+000 0.0000000000E+000 0.0000000000E+000 0.0000000000E+000 0.0000000000E+000 0.0000000000E+000 0.0000000000E+000 -4.5725000000E+001
6.500000000000E+000 0.000000000000E+000 0.0000000000E+000 0.0000000000E+000 0.0000000000E+000 0.0000000000E+000 0.0000000000E+000 0.0000000000E+000 -3.3930000000E+001
1.050000000000E+001 0.000000000000E+000 0.0000000000E+000 0.0000000000E+000 0.0000000000E+000 0.0000000000E+000 0.0000000000E+000 0.0000000000E+000 -2.9608375000E+001
1.450000000000E+001 0.000000000000E+000 0.0000000000E+000 0.0000000000E+000 0.0000000000E+000 0.0000000000E+000 0.0000000000E+000 0.0000000000E+000 -2.9714500000E+001
1.850000000000E+001 0.000000000000E+000 0.0000000000E+000 0.0000000000E+000 0.0000000000E+000 0.0000000000E+000 0.0000000000E+000 0.0000000000E+000 -2.9956500000E+001
2.250000000000E+001 0.000000000000E+000 0.0000000000E+000 0.0000000000E+000 0.0000000000E+000 0.0000000000E+000 0.0000000000E+000 0.0000000000E+000 -2.8818181818E+001
2.650000000000E+001 0.000000000000E+000 0.0000000000E+000 0.0000000000E+000 0.0000000000E+000 0.0000000000E+000 0.0000000000E+000 0.0000000000E+000 -2.4937454548E+001
3.050000000000E+001 0.000000000000E+000 0.0000000000E+000 0.0000000000E+000 0.0000000000E+000 0.0000000000E+000 0.0000000000E+000 0.0000000000E+000 -2.1845318183E+001
3.450000000000E+001 0.000000000000E+000 0.0000000000E+000 0.0000000000E+000 0.0000000000E+000 0.0000000000E+000 0.0000000000E+000 0.0000000000E+000 -2.0446272730E+001
3.850000000000E+001 0.000000000000E+000 0.0000000000E+000 0.0000000000E+000 0.0000000000E+000 0.0000000000E+000 0.0000000000E+000 0.0000000000E+000 -1.9390272728E+001
4.250000000000E+001 0.000000000000E+000 0.0000000000E+000 0.0000000000E+000 0.0000000000E+000 0.0000000000E+000 0.0000000000E+000 0.0000000000E+000 -1.8346590910E+001
4.650000000000E+001 0.000000000000E+000 0.0000000000E+000 0.0000000000E+000 0.0000000000E+000 0.0000000000E+000 0.0000000000E+000 0.0000000000E+000 -1.7357045455E+001
5.050000000000E+001 0.000000000000E+000 0.0000000000E+000 0.0000000000E+000 0.0000000000E+000 0.0000000000E+000 0.0000000000E+000 0.0000000000E+000 -1.6371641415E+001
5.450000000000E+001 0.000000000000E+000 0.0000000000E+000 0.0000000000E+000 0.0000000000E+000 0.0000000000E+000 0.0000000000E+000 0.0000000000E+000 -1.5345277778E+001
5.850000000000E+001 0.000000000000E+000 0.0000000000E+000 0.0000000000E+000 0.0000000000E+000 0.0000000000E+000 0.0000000000E+000 0.0000000000E+000 -1.4350277778E+001
6.250000000000E+001 0.000000000000E+000 0.0000000000E+000 0.0000000000E+000 0.0000000000E+000 0.0000000000E+000 0.0000000000E+000 0.0000000000E+000 -1.3483333333E+001
6.650000000000E+001 0.000000000000E+000 0.0000000000E+000 0.0000000000E+000 0.0000000000E+000 0.0000000000E+000 0.0000000000E+000 0.0000000000E+000 -1.2712666668E+001
7.050000000000E+001 0.000000000000E+000 0.0000000000E+000 0.0000000000E+000 0.0000000000E+000 0.0000000000E+000 0.0000000000E+000 0.0000000000E+000 -1.1881013890E+001
7.450000000000E+001 0.000000000000E+000 0.0000000000E+000 0.0000000000E+000 0.0000000000E+000 0.0000000000E+000 0.0000000000E+000 0.0000000000E+000 -1.0910555555E+001
7.850000000000E+001 0.000000000000E+000 0.0000000000E+000 0.0000000000E+000 0.0000000000E+000 0.0000000000E+000 0.0000000000E+000 0.0000000000E+000 -9.8822222225E+000
8.250000000000E+001 0.000000000000E+000 0.0000000000E+000 0.0000000000E+000 0.0000000000E+000 0.0000000000E+000 0.0000000000E+000 0.0000000000E+000 -8.8611111110E+000
8.650000000000E+001 0.000000000000E+000 0.0000000000E+000 0.0000000000E+000 0.0000000000E+000 0.0000000000E+000 0.0000000000E+000 0.0000000000E+000 -7.8372222223E+000
9.050000000000E+001 0.000000000000E+000 0.0000000000E+000 0.0000000000E+000 0.0000000000E+000 0.0000000000E+000 0.0000000000E+000 0.0000000000E+000 -6.8952638890E+000
9.450000000000E+001 0.000000000000E+000 0.0000000000E+000 0.0000000000E+000 0.0000000000E+000 0.0000000000E+000 0.0000000000E+000 0.0000000000E+000 -6.0715555555E+000
9.850000000000E+001 0.000000000000E+000 0.0000000000E+000 0.0000000000E+000 0.0000000000E+000 0.0000000000E+000 0.0000000000E+000 0.0000000000E+000 -5.2942222223E+000
1.025000000000E+002 0.000000000000E+000 0.0000000000E+000 0.0000000000E+000 0.0000000000E+000 0.0000000000E+000 0.0000000000E+000 0.0000000000E+000 -4.4857142858E+000
1.065000000000E+002 0.000000000000E+000 0.0000000000E+000 0.0000000000E+000 0.0000000000E+000 0.0000000000E+000 0.0000000000E+000 0.0000000000E+000 -3.6611428570E+000
1.105000000000E+002 0.000000000000E+000 0.0000000000E+000 0.0000000000E+000 0.0000000000E+000 0.0000000000E+000 0.0000000000E+000 0.0000000000E+000 -2.9205178573E+000
1.145000000000E+002 0.000000000000E+000 0.0000000000E+000 0.0000000000E+000 0.0000000000E+000 0.0000000000E+000 0.0000000000E+000 0.0000000000E+000 -2.2975714285E+000
1.185000000000E+002 0.000000000000E+000 0.0000000000E+000 0.0000000000E+000 0.0000000000E+000 0.0000000000E+000 0.0000000000E+000 0.0000000000E+000 -1.7194285715E+000
1.225000000000E+002 0.000000000000E+000 0.0000000000E+000 0.0000000000E+000 0.0000000000E+000 0.0000000000E+000 0.0000000000E+000 0.0000000000E+000 -1.1250000000E+000
1.265000000000E+002 0.000000000000E+000 0.0000000000E+000 0.0000000000E+000 0.0000000000E+000 0.0000000000E+000 0.0000000000E+000 0.0000000000E+000 -5.2500000000E-001
1.305000000000E+002 0.000000000000E+000 0.0000000000E+000 0.0000000000E+000 0.0000000000E+000 0.0000000000E+000 0.0000000000E+000 0.0000000000E+000 7.2803571500E-002
1.345000000000E+002 0.000000000000E+000 0.0000000000E+000 0.0000000000E+000 0.0000000000E+000 0.0000000000E+000 0.0000000000E+000 0.0000000000E+000 6.5207142850E-001
1.385000000000E+002 0.000000000000E+000 0.0000000000E+000 0.0000000000E+000 0.0000000000E+000 0.0000000000E+000 0.0000000000E+000 0.0000000000E+000 1.2559285715E+000
1.425000000000E+002 0.000000000000E+000 0.0000000000E+000 0.0000000000E+000 0.0000000000E+000 0.0000000000E+000 0.0000000000E+000 0.0000000000E+000 2.0242857143E+000
1.465000000000E+002 0.000000000000E+000 0.0000000000E+000 0.0000000000E+000 0.0000000000E+000 0.0000000000E+000 0.0000000000E+000 0.0000000000E+000 2.9406285715E+000
1.505000000000E+002 0.000000000000E+000 0.0000000000E+000 0.0000000000E+000 0.0000000000E+000 0.0000000000E+000 0.0000000000E+000 0.0000000000E+000 3.5268321428E+000
1.545000000000E+002 0.000000000000E+000 0.0000000000E+000 0.0000000000E+000 0.0000000000E+000 0.0000000000E+000 0.0000000000E+000 0.0000000000E+000 3.7634000000E+000
1.585000000000E+002 0.000000000000E+000 0.0000000000E+000 0.0000000000E+000 0.0000000000E+000 0.0000000000E+000 0.0000000000E+000 0.0000000000E+000 3.9328000000E+000
1.625000000000E+002 0.000000000000E+000 0.0000000000E+000 0.0000000000E+000 0.0000000000E+000 0.0000000000E+000 0.0000000000E+000 0.0000000000E+000 4.1250000000E+000
1.665000000000E+002 0.000000000000E+000 0.0000000000E+000 0.0000000000E+000 0.0000000000E+000 0.0000000000E+000 0.0000000000E+000 0.0000000000E+000 4.3250000000E+000
1.705000000000E+002 0.000000000000E+000 0.0000000000E+000 0.0000000000E+000 0.0000000000E+000 0.0000000000E+000 0.0000000000E+000 0.0000000000E+000 4.5250000000E+000
1.745000000000E+002 0.000000000000E+000 0.0000000000E+000 0.0000000000E+000 0.0000000000E+000 0.0000000000E+000 0.0000000000E+000 0.0000000000E+000 4.7250000000E+000
1.782500000000E+002 0.000000000000E+000 0.0000000000E+000 0.0000000000E+000 0.0000000000E+000 0.0000000000E+000 0.0000000000E+000 0.0000000000E+000 4.9125000000E+000
1.800000000000E+002 0.000000000000E+000 0.0000000000E+000 0.0000000000E+000 0.0000000000E+000 0.0000000000E+000 0.0000000000E+000 0.0000000000E+000 5.0000000000E+000
0.000000000000E+000 3.600000000000E+002 0.0000000000E+000 0.0000000000E+000 0.0000000000E+000 0.0000000000E+000 0.0000000000E+000 0.0000000000E+000 -5.0000000000E+001
2.500000000000E+000 3.600000000000E+002 0.0000000000E+000 0.0000000000E+000 0.0000000000E+000 0.0000000000E+000 0.0000000000E+000 0.0000000000E+000 -4.0725000000E+001
6.500000000000E+000 3.600000000000E+002 0.0000000000E+000 0.0000000000E+000 0.0000000000E+000 0.0000000000E+000 0.0000000000E+000 0.0000000000E+000 -2.8930000000E+001
1.050000000000E+001 3.600000000000E+002 0.0000000000E+000 0.0000000000E+000 0.0000000000E+000 0.0000000000E+000 0.0000000000E+000 0.0000000000E+000 -2.4608375000E+001
1.450000000000E+001 3.600000000000E+002 0.0000000000E+000 0.0000000000E+000 0.0000000000E+000 0.0000000000E+000 0.0000000000E+000 0.0000000000E+000 -2.4714500000E+001
1.850000000000E+001 3.600000000000E+002 0.0000000000E+000 0.0000000000E+000 0.0000000000E+000 0.0000000000E+000 0.0000000000E+000 0.0000000000E+000 -2.4956500000E+001
2.250000000000E+001 3.600000000000E+002 0.0000000000E+000 0.0000000000E+000 0.0000000000E+000 0.0000000000E+000 0.0000000000E+000 0.0000000000E+000 -2.3818181818E+001
2.650000000000E+001 3.600000000000E+002 0.0000000000E+000 0.0000000000E+000 0.0000000000E+000 0.0000000000E+000 0.0000000000E+000 0.0000000000E+000 -1.9937454548E+001
3.050000000000E+001 3.600000000000E+002 0.0000000000E+000 0.0000000000E+000 0.0000000000E+000 0.0000000000E+000 0.0000000000E+000 0.0000000000E+000 -1.6845318183E+001
3.450000000000E+001 3.600000000000E+002 0.0000000000E+000 0.0000000000E+000 0.0000000000E+000 0.0000000000E+000 0.0000000000E+000 0.0000000000E+000 -1.5446272730E+001
3.850000000000E+001 3.600000000000E+002 0.0000000000E+000 0.0000000000E+000 0.0000000000E+000 0.0000000000E+000 0.0000000000E+000 0.0000000000E+000 -1.4390272728E+001
4.250000000000E+001 3.600000000000E+002 0.0000000000E+000 0.0000000000E+000 0.0000000000E+000 0.0000000000E+000 0.0000000000E+000 0.0000000000E+000 -1.3346590910E+001
4.650000000000E+001 3.600000000000E+002 0.0000000000E+000 0.0000000000E+000 0.0000000000E+000 0.0000000000E+000 0.0000000000E+000 0.0000000000E+000 -1.2357045455E+001
5.050000000000E+001 3.600000000000E+002 0.0000000000E+000 0.0000000000E+000 0.0000000000E+000 0.0000000000E+000 0.0000000000E+000 0.0000000000E+000 -1.1371641415E+001
5.450000000000E+001 3.600000000000E+002 0.0000000000E+000 0.0000000000E+000 0.0000000000E+000 0.0000000000E+000 0.0000000000E+000 0.0000000000E+000 -1.0345277778E+001
5.850000000000E+001 3.600000000000E+002 0.0000000000E+000 0.0000000000E+000 0.0000000000E+000 0.0000000000E+000 0.0000000000E+000 0.0000000000E+000 -9.3502777778E+000
6.250000000000E+001 3.600000000000E+002 0.0000000000E+000 0.0000000000E+000 0.0000000000E+000 0.0000000000E+000 0.0000000000E+000 0.0000000000E+000 -8.4833333333E+000
6.650000000000E+001 3.600000000000E+002 0.0000000000E+000 0.0000000000E+000 0.0000000000E+000 0.0000000000E+000 0.0000000000E+000 0.0000000000E+000 -7.7126666668E+000
7.050000000000E+001 3.600000000000E+002 0.0000000000E+000 0.0000000000E+000 0.0000000000E+000 0.0000000000E+000 0.0000000000E+000 0.0000000000E+000 -6.8810138890E+000
7.450000000000E+001 3.600000000000E+002 0.0000000000E+000 0.0000000000E+000 0.0000000000E+000 0.0000000000E+000 0.0000000000E+000 0.0000000000E+000 -5.9105555555E+000
7.850000000000E+001 3.600000000000E+002 0.0000000000E+000 0.0000000000E+000 0.0000000000E+000 0.0000000000E+000 0.0000000000E+000 0.0000000000E+000 -4.8822222223E+000
8.250000000000E+001 3.600000000000E+002 0.0000000000E+000 0.0000000000E+000 0.0000000000E+000 0.0000000000E+000 0.0000000000E+000 0.0000000000E+000 -3.8611111110E+000
8.650000000000E+001 3.600000000000E+002 0.0000000000E+000 0.0000000000E+000 0.0000000000E+000 0.0000000000E+000 0.0000000000E+000 0.0000000000E+000 -2.8372222223E+000
9.050000000000E+001 3.600000000000E+002 0.0000000000E+000 0.0000000000E+000 0.0000000000E+000 0.0000000000E+000 0.0000000000E+000 0.0000000000E+000 -1.8952638890E+000
9.450000000000E+001 3.600000000000E+002 0.0000000000E+000 0.0000000000E+000 0.0000000000E+000 0.0000000000E+000 0.0000000000E+000 0.0000000000E+000 -1.0715555555E+000
9.850000000000E+001 3.600000000000E+002 0.0000000000E+000 0.0000000000E+000 0.0000000000E+000 0.0000000000E+000 0.0000000000E+000 0.0000000000E+000 -2.9422222225E-001
1.025000000000E+002 3.600000000000E+002 0.0000000000E+000 0.0000000000E+000 0.0000000000E+000 0.0000000000E+000 0.0000000000E+000 0.0000000000E+000 5.1428571425E-001
1.065000000000E+002 3.600000000000E+002 0.0000000000E+000 0.0000000000E+000 0.0000000000E+000 0.0000000000E+000 0.0000000000E+000 0.0000000000E+000 1.3388571430E+000
1.105000000000E+002 3.600000000000E+002 0.0000000000E+000 0.0000000000E+000 0.0000000000E+000 0.0000000000E+000 0.0000000000E+000 0.0000000000E+000 2.0794821428E+000
1.145000000000E+002 3.600000000000E+002 0.0000000000E+000 0.0000000000E+000 0.0000000000E+000 0.0000000000E+000 0.0000000000E+000 0.0000000000E+000 2.7024285715E+000
1.185000000000E+002 3.600000000000E+002 0.0000000000E+000 0.0000000000E+000 0.0000000000E+000 0.0000000000E+000 0.0000000000E+000 0.0000000000E+000 3.2805714285E+000
1.225000000000E+002 3.600000000000E+002 0.0000000000E+000 0.0000000000E+000 0.0000000000E+000 0.0000000000E+000 0.0000000000E+000 0.0000000000E+000 3.8750000000E+000
1.265000000000E+002 3.600000000000E+002 0.0000000000E+000 0.0000000000E+000 0.0000000000E+000 0.0000000000E+000 0.0000000000E+000 0.0000000000E+000 4.4750000000E+000
1.305000000000E+002 3.600000000000E+002 0.0000000000E+000 0.0000000000E+000 0.0000000000E+000 0.0000000000E+000 0.0000000000E+000 0.0000000000E+000 5.0728035715E+000
1.345000000000E+002 3.600000000000E+002 0.0000000000E+000 0.0000000000E+000 0.0000000000E+000 0.0000000000E+000 0.0000000000E+000 0.0000000000E+000 5.6520714285E+000
1.385000000000E+002 3.600000000000E+002 0.0000000000E+000 0.0000000000E+000 0.0000000000E+000 0.0000000000E+000 0.0000000000E+000 0.0000000000E+000 6.2559285715E+000
1.425000000000E+002 3.600000000000E+002 0.0000000000E+000 0.0000000000E+000 0.0000000000E+000 0.0000000000E+000 0.0000000000E+000 0.0000000000E+000 7.0242857143E+000
1.465000000000E+002 3.600000000000E+002 0.0000000000E+000 0.0000000000E+000 0.0000000000E+000 0.0000000000E+000 0.0000000000E+000 0.0000000000E+000 7.9406285715E+000
1.505000000000E+002 3.600000000000E+002 0.0000000000E+000 0.0000000000E+000 0.0000000000E+000 0.0000000000E+000 0.0000000000E+000 0.0000000000E+000 8.5268321428E+000
1.545000000000E+002 3.600000000000E+002 0.0000000000E+000 0.0000000000E+000 0.0000000000E+000 0.0000000000E+000 0.0000000000E+000 0.0000000000E+000 8.7634000000E+000
1.585000000000E+002 3.600000000000E+002 0.0000000000E+000 0.0000000000E+000 0.0000000000E+000 0.0000000000E+000 0.0000000000E+000 0.0000000000E+000 8.9328000000E+000
1.625000000000E+002 3.600000000000E+002 0.0000000000E+000 0.0000000000E+000 0.0000000000E+000 0.0000000000E+000 0.0000000000E+000 0.0000000000E+000 9.1250000000E+000
1.665000000000E+002 3.600000000000E+002 0.0000000000E+000 0.0000000000E+000 0.0000000000E+000 0.0000000000E+000 0.0000000000E+000 0.0000000000E+000 9.3250000000E+000
1.705000000000E+002 3.600000000000E+002 0.0000000000E+000 0.0000000000E+000 0.0000000000E+000 0.0000000000E+000 0.0000000000E+000 0.0000000000E+000 9.5250000000E+000
1.745000000000E+002 3.600000000000E+002 0.0000000000E+000 0.0000000000E+000 0.0000000000E+000 0.0000000000E+000 0.0000000000E+000 0.0000000000E+000 9.7250000000E+000
1.782500000000E+002 3.600000000000E+002 0.0000000000E+000 0.0000000000E+000 0.0000000000E+000 0.0000000000E+000 0.0000000000E+000 0.0000000000E+000 9.9125000000E+000
1.800000000000E+002 3.600000000000E+002 0.0000000000E+000 0.0000000000E+000 0.0000000000E+000 0.0000000000E+000 0.0000000000E+000 0.0000000000E+000 1.0000000000E+001
