##File Type: Far field
#Frequency: 1.57542e+09
#No. of Theta Samples: 41
#No. of Phi Samples: 49
#Far Field Type: Gain
#No. of Header Lines: 1
#    "Theta"    "Phi"    "Re(Etheta)"    "Im(Etheta)"    "Re(Ephi)"     "Im(Ephi)"    "Gain(Theta)"    "Gain(Phi)"    "Gain(Total)"
0 0 0 0 0 0 0 0 5
4.5 0 0 0 0 0 0 0 4.91
9 0 0 0 0 0 0 0 4.82
13.5 0 0 0 0 0 0 0 4.695
18 0 0 0 0 0 0 0 4.44
22.5 0 0 0 0 0 0 0 4.2
27 0 0 0 0 0 0 0 3.96
31.5 0 0 0 0 0 0 0 3.705
36 0 0 0 0 0 0 0 3.56
40.5 0 0 0 0 0 0 0 3.38
45 0 0 0 0 0 0 0 3.2
49.5 0 0 0 0 0 0 0 3.02
54 0 0 0 0 0 0 0 2.68
58.5 0 0 0 0 0 0 0 2.18
63 0 0 0 0 0 0 0 1.76
67.5 0 0 0 0 0 0 0 1.3
72 0 0 0 0 0 0 0 0.76
76.5 0 0 0 0 0 0 0 0.13
81 0 0 0 0 0 0 0 -0.64
85.5 0 0 0 0 0 0 0 -1.28
90 0 0 0 0 0 0 0 -2
94.5 0 0 0 0 0 0 0 -2.99
99 0 0 0 0 0 0 0 -4.22
103.5 0 0 0 0 0 0 0 -4.85
108 0 0 0 0 0 0 0 -5.9
112.5 0 0 0 0 0 0 0 -7
117 0 0 0 0 0 0 0 -7.98
121.5 0 0 0 0 0 0 0 -9.18
126 0 0 0 0 0 0 0 -10.74
130.5 0 0 0 0 0 0 0 -12.65
135 0 0 0 0 0 0 0 -14
139.5 0 0 0 0 0 0 0 -15.8
144 0 0 0 0 0 0 0 -17.2
148.5 0 0 0 0 0 0 0 -18.55
153 0 0 0 0 0 0 0 -19.3
157.5 0 0 0 0 0 0 0 -19.75
162 0 0 0 0 0 0 0 -19.8
166.5 0 0 0 0 0 0 0 -19.35
171 0 0 0 0 0 0 0 -19
175.5 0 0 0 0 0 0 0 -18.95
180 0 0 0 0 0 0 0 -18.5
0 7.5 0 0 0 0 0 0 5
4.5 7.5 0 0 0 0 0 0 4.91
9 7.5 0 0 0 0 0 0 4.82
13.5 7.5 0 0 0 0 0 0 4.695
18 7.5 0 0 0 0 0 0 4.44
22.5 7.5 0 0 0 0 0 0 4.2
27 7.5 0 0 0 0 0 0 3.96
31.5 7.5 0 0 0 0 0 0 3.705
36 7.5 0 0 0 0 0 0 3.56
40.5 7.5 0 0 0 0 0 0 3.38
45 7.5 0 0 0 0 0 0 3.2
49.5 7.5 0 0 0 0 0 0 3.02
54 7.5 0 0 0 0 0 0 2.68
58.5 7.5 0 0 0 0 0 0 2.18
63 7.5 0 0 0 0 0 0 1.76
67.5 7.5 0 0 0 0 0 0 1.3
72 7.5 0 0 0 0 0 0 0.76
76.5 7.5 0 0 0 0 0 0 0.13
81 7.5 0 0 0 0 0 0 -0.64
85.5 7.5 0 0 0 0 0 0 -1.28
90 7.5 0 0 0 0 0 0 -2
94.5 7.5 0 0 0 0 0 0 -2.99
99 7.5 0 0 0 0 0 0 -4.22
103.5 7.5 0 0 0 0 0 0 -4.85
108 7.5 0 0 0 0 0 0 -5.9
112.5 7.5 0 0 0 0 0 0 -7
117 7.5 0 0 0 0 0 0 -7.98
121.5 7.5 0 0 0 0 0 0 -9.18
126 7.5 0 0 0 0 0 0 -10.74
130.5 7.5 0 0 0 0 0 0 -12.65
135 7.5 0 0 0 0 0 0 -14
139.5 7.5 0 0 0 0 0 0 -15.8
144 7.5 0 0 0 0 0 0 -17.2
148.5 7.5 0 0 0 0 0 0 -18.55
153 7.5 0 0 0 0 0 0 -19.3
157.5 7.5 0 0 0 0 0 0 -19.75
162 7.5 0 0 0 0 0 0 -19.8
166.5 7.5 0 0 0 0 0 0 -19.35
171 7.5 0 0 0 0 0 0 -19
175.5 7.5 0 0 0 0 0 0 -18.95
180 7.5 0 0 0 0 0 0 -18.5
0 15 0 0 0 0 0 0 5
4.5 15 0 0 0 0 0 0 4.91
9 15 0 0 0 0 0 0 4.82
13.5 15 0 0 0 0 0 0 4.695
18 15 0 0 0 0 0 0 4.44
22.5 15 0 0 0 0 0 0 4.2
27 15 0 0 0 0 0 0 3.96
31.5 15 0 0 0 0 0 0 3.705
36 15 0 0 0 0 0 0 3.56
40.5 15 0 0 0 0 0 0 3.38
45 15 0 0 0 0 0 0 3.2
49.5 15 0 0 0 0 0 0 3.02
54 15 0 0 0 0 0 0 2.68
58.5 15 0 0 0 0 0 0 2.18
63 15 0 0 0 0 0 0 1.76
67.5 15 0 0 0 0 0 0 1.3
72 15 0 0 0 0 0 0 0.76
76.5 15 0 0 0 0 0 0 0.13
81 15 0 0 0 0 0 0 -0.64
85.5 15 0 0 0 0 0 0 -1.28
90 15 0 0 0 0 0 0 -2
94.5 15 0 0 0 0 0 0 -2.99
99 15 0 0 0 0 0 0 -4.22
103.5 15 0 0 0 0 0 0 -4.85
108 15 0 0 0 0 0 0 -5.9
112.5 15 0 0 0 0 0 0 -7
117 15 0 0 0 0 0 0 -7.98
121.5 15 0 0 0 0 0 0 -9.18
126 15 0 0 0 0 0 0 -10.74
130.5 15 0 0 0 0 0 0 -12.65
135 15 0 0 0 0 0 0 -14
139.5 15 0 0 0 0 0 0 -15.8
144 15 0 0 0 0 0 0 -17.2
148.5 15 0 0 0 0 0 0 -18.55
153 15 0 0 0 0 0 0 -19.3
157.5 15 0 0 0 0 0 0 -19.75
162 15 0 0 0 0 0 0 -19.8
166.5 15 0 0 0 0 0 0 -19.35
171 15 0 0 0 0 0 0 -19
175.5 15 0 0 0 0 0 0 -18.95
180 15 0 0 0 0 0 0 -18.5
0 22.5 0 0 0 0 0 0 5
4.5 22.5 0 0 0 0 0 0 4.91
9 22.5 0 0 0 0 0 0 4.82
13.5 22.5 0 0 0 0 0 0 4.695
18 22.5 0 0 0 0 0 0 4.44
22.5 22.5 0 0 0 0 0 0 4.2
27 22.5 0 0 0 0 0 0 3.96
31.5 22.5 0 0 0 0 0 0 3.705
36 22.5 0 0 0 0 0 0 3.56
40.5 22.5 0 0 0 0 0 0 3.38
45 22.5 0 0 0 0 0 0 3.2
49.5 22.5 0 0 0 0 0 0 3.02
54 22.5 0 0 0 0 0 0 2.68
58.5 22.5 0 0 0 0 0 0 2.18
63 22.5 0 0 0 0 0 0 1.76
67.5 22.5 0 0 0 0 0 0 1.3
72 22.5 0 0 0 0 0 0 0.76
76.5 22.5 0 0 0 0 0 0 0.13
81 22.5 0 0 0 0 0 0 -0.64
85.5 22.5 0 0 0 0 0 0 -1.28
90 22.5 0 0 0 0 0 0 -2
94.5 22.5 0 0 0 0 0 0 -2.99
99 22.5 0 0 0 0 0 0 -4.22
103.5 22.5 0 0 0 0 0 0 -4.85
108 22.5 0 0 0 0 0 0 -5.9
112.5 22.5 0 0 0 0 0 0 -7
117 22.5 0 0 0 0 0 0 -7.98
121.5 22.5 0 0 0 0 0 0 -9.18
126 22.5 0 0 0 0 0 0 -10.74
130.5 22.5 0 0 0 0 0 0 -12.65
135 22.5 0 0 0 0 0 0 -14
139.5 22.5 0 0 0 0 0 0 -15.8
144 22.5 0 0 0 0 0 0 -17.2
148.5 22.5 0 0 0 0 0 0 -18.55
153 22.5 0 0 0 0 0 0 -19.3
157.5 22.5 0 0 0 0 0 0 -19.75
162 22.5 0 0 0 0 0 0 -19.8
166.5 22.5 0 0 0 0 0 0 -19.35
171 22.5 0 0 0 0 0 0 -19
175.5 22.5 0 0 0 0 0 0 -18.95
180 22.5 0 0 0 0 0 0 -18.5
0 30 0 0 0 0 0 0 5
4.5 30 0 0 0 0 0 0 4.91
9 30 0 0 0 0 0 0 4.82
13.5 30 0 0 0 0 0 0 4.695
18 30 0 0 0 0 0 0 4.44
22.5 30 0 0 0 0 0 0 4.2
27 30 0 0 0 0 0 0 3.96
31.5 30 0 0 0 0 0 0 3.705
36 30 0 0 0 0 0 0 3.56
40.5 30 0 0 0 0 0 0 3.38
45 30 0 0 0 0 0 0 3.2
49.5 30 0 0 0 0 0 0 3.02
54 30 0 0 0 0 0 0 2.68
58.5 30 0 0 0 0 0 0 2.18
63 30 0 0 0 0 0 0 1.76
67.5 30 0 0 0 0 0 0 1.3
72 30 0 0 0 0 0 0 0.76
76.5 30 0 0 0 0 0 0 0.13
81 30 0 0 0 0 0 0 -0.64
85.5 30 0 0 0 0 0 0 -1.28
90 30 0 0 0 0 0 0 -2
94.5 30 0 0 0 0 0 0 -2.99
99 30 0 0 0 0 0 0 -4.22
103.5 30 0 0 0 0 0 0 -4.85
108 30 0 0 0 0 0 0 -5.9
112.5 30 0 0 0 0 0 0 -7
117 30 0 0 0 0 0 0 -7.98
121.5 30 0 0 0 0 0 0 -9.18
126 30 0 0 0 0 0 0 -10.74
130.5 30 0 0 0 0 0 0 -12.65
135 30 0 0 0 0 0 0 -14
139.5 30 0 0 0 0 0 0 -15.8
144 30 0 0 0 0 0 0 -17.2
148.5 30 0 0 0 0 0 0 -18.55
153 30 0 0 0 0 0 0 -19.3
157.5 30 0 0 0 0 0 0 -19.75
162 30 0 0 0 0 0 0 -19.8
166.5 30 0 0 0 0 0 0 -19.35
171 30 0 0 0 0 0 0 -19
175.5 30 0 0 0 0 0 0 -18.95
180 30 0 0 0 0 0 0 -18.5
0 37.5 0 0 0 0 0 0 5
4.5 37.5 0 0 0 0 0 0 4.91
9 37.5 0 0 0 0 0 0 4.82
13.5 37.5 0 0 0 0 0 0 4.695
18 37.5 0 0 0 0 0 0 4.44
22.5 37.5 0 0 0 0 0 0 4.2
27 37.5 0 0 0 0 0 0 3.96
31.5 37.5 0 0 0 0 0 0 3.705
36 37.5 0 0 0 0 0 0 3.56
40.5 37.5 0 0 0 0 0 0 3.38
45 37.5 0 0 0 0 0 0 3.2
49.5 37.5 0 0 0 0 0 0 3.02
54 37.5 0 0 0 0 0 0 2.68
58.5 37.5 0 0 0 0 0 0 2.18
63 37.5 0 0 0 0 0 0 1.76
67.5 37.5 0 0 0 0 0 0 1.3
72 37.5 0 0 0 0 0 0 0.76
76.5 37.5 0 0 0 0 0 0 0.13
81 37.5 0 0 0 0 0 0 -0.64
85.5 37.5 0 0 0 0 0 0 -1.28
90 37.5 0 0 0 0 0 0 -2
94.5 37.5 0 0 0 0 0 0 -2.99
99 37.5 0 0 0 0 0 0 -4.22
103.5 37.5 0 0 0 0 0 0 -4.85
108 37.5 0 0 0 0 0 0 -5.9
112.5 37.5 0 0 0 0 0 0 -7
117 37.5 0 0 0 0 0 0 -7.98
121.5 37.5 0 0 0 0 0 0 -9.18
126 37.5 0 0 0 0 0 0 -10.74
130.5 37.5 0 0 0 0 0 0 -12.65
135 37.5 0 0 0 0 0 0 -14
139.5 37.5 0 0 0 0 0 0 -15.8
144 37.5 0 0 0 0 0 0 -17.2
148.5 37.5 0 0 0 0 0 0 -18.55
153 37.5 0 0 0 0 0 0 -19.3
157.5 37.5 0 0 0 0 0 0 -19.75
162 37.5 0 0 0 0 0 0 -19.8
166.5 37.5 0 0 0 0 0 0 -19.35
171 37.5 0 0 0 0 0 0 -19
175.5 37.5 0 0 0 0 0 0 -18.95
180 37.5 0 0 0 0 0 0 -18.5
0 45 0 0 0 0 0 0 5
4.5 45 0 0 0 0 0 0 4.91
9 45 0 0 0 0 0 0 4.82
13.5 45 0 0 0 0 0 0 4.695
18 45 0 0 0 0 0 0 4.44
22.5 45 0 0 0 0 0 0 4.2
27 45 0 0 0 0 0 0 3.96
31.5 45 0 0 0 0 0 0 3.705
36 45 0 0 0 0 0 0 3.56
40.5 45 0 0 0 0 0 0 3.38
45 45 0 0 0 0 0 0 3.2
49.5 45 0 0 0 0 0 0 3.02
54 45 0 0 0 0 0 0 2.68
58.5 45 0 0 0 0 0 0 2.18
63 45 0 0 0 0 0 0 1.76
67.5 45 0 0 0 0 0 0 1.3
72 45 0 0 0 0 0 0 0.76
76.5 45 0 0 0 0 0 0 0.13
81 45 0 0 0 0 0 0 -0.64
85.5 45 0 0 0 0 0 0 -1.28
90 45 0 0 0 0 0 0 -2
94.5 45 0 0 0 0 0 0 -2.99
99 45 0 0 0 0 0 0 -4.22
103.5 45 0 0 0 0 0 0 -4.85
108 45 0 0 0 0 0 0 -5.9
112.5 45 0 0 0 0 0 0 -7
117 45 0 0 0 0 0 0 -7.98
121.5 45 0 0 0 0 0 0 -9.18
126 45 0 0 0 0 0 0 -10.74
130.5 45 0 0 0 0 0 0 -12.65
135 45 0 0 0 0 0 0 -14
139.5 45 0 0 0 0 0 0 -15.8
144 45 0 0 0 0 0 0 -17.2
148.5 45 0 0 0 0 0 0 -18.55
153 45 0 0 0 0 0 0 -19.3
157.5 45 0 0 0 0 0 0 -19.75
162 45 0 0 0 0 0 0 -19.8
166.5 45 0 0 0 0 0 0 -19.35
171 45 0 0 0 0 0 0 -19
175.5 45 0 0 0 0 0 0 -18.95
180 45 0 0 0 0 0 0 -18.5
0 52.5 0 0 0 0 0 0 5
4.5 52.5 0 0 0 0 0 0 4.91
9 52.5 0 0 0 0 0 0 4.82
13.5 52.5 0 0 0 0 0 0 4.695
18 52.5 0 0 0 0 0 0 4.44
22.5 52.5 0 0 0 0 0 0 4.2
27 52.5 0 0 0 0 0 0 3.96
31.5 52.5 0 0 0 0 0 0 3.705
36 52.5 0 0 0 0 0 0 3.56
40.5 52.5 0 0 0 0 0 0 3.38
45 52.5 0 0 0 0 0 0 3.2
49.5 52.5 0 0 0 0 0 0 3.02
54 52.5 0 0 0 0 0 0 2.68
58.5 52.5 0 0 0 0 0 0 2.18
63 52.5 0 0 0 0 0 0 1.76
67.5 52.5 0 0 0 0 0 0 1.3
72 52.5 0 0 0 0 0 0 0.76
76.5 52.5 0 0 0 0 0 0 0.13
81 52.5 0 0 0 0 0 0 -0.64
85.5 52.5 0 0 0 0 0 0 -1.28
90 52.5 0 0 0 0 0 0 -2
94.5 52.5 0 0 0 0 0 0 -2.99
99 52.5 0 0 0 0 0 0 -4.22
103.5 52.5 0 0 0 0 0 0 -4.85
108 52.5 0 0 0 0 0 0 -5.9
112.5 52.5 0 0 0 0 0 0 -7
117 52.5 0 0 0 0 0 0 -7.98
121.5 52.5 0 0 0 0 0 0 -9.18
126 52.5 0 0 0 0 0 0 -10.74
130.5 52.5 0 0 0 0 0 0 -12.65
135 52.5 0 0 0 0 0 0 -14
139.5 52.5 0 0 0 0 0 0 -15.8
144 52.5 0 0 0 0 0 0 -17.2
148.5 52.5 0 0 0 0 0 0 -18.55
153 52.5 0 0 0 0 0 0 -19.3
157.5 52.5 0 0 0 0 0 0 -19.75
162 52.5 0 0 0 0 0 0 -19.8
166.5 52.5 0 0 0 0 0 0 -19.35
171 52.5 0 0 0 0 0 0 -19
175.5 52.5 0 0 0 0 0 0 -18.95
180 52.5 0 0 0 0 0 0 -18.5
0 60 0 0 0 0 0 0 5
4.5 60 0 0 0 0 0 0 4.91
9 60 0 0 0 0 0 0 4.82
13.5 60 0 0 0 0 0 0 4.695
18 60 0 0 0 0 0 0 4.44
22.5 60 0 0 0 0 0 0 4.2
27 60 0 0 0 0 0 0 3.96
31.5 60 0 0 0 0 0 0 3.705
36 60 0 0 0 0 0 0 3.56
40.5 60 0 0 0 0 0 0 3.38
45 60 0 0 0 0 0 0 3.2
49.5 60 0 0 0 0 0 0 3.02
54 60 0 0 0 0 0 0 2.68
58.5 60 0 0 0 0 0 0 2.18
63 60 0 0 0 0 0 0 1.76
67.5 60 0 0 0 0 0 0 1.3
72 60 0 0 0 0 0 0 0.76
76.5 60 0 0 0 0 0 0 0.13
81 60 0 0 0 0 0 0 -0.64
85.5 60 0 0 0 0 0 0 -1.28
90 60 0 0 0 0 0 0 -2
94.5 60 0 0 0 0 0 0 -2.99
99 60 0 0 0 0 0 0 -4.22
103.5 60 0 0 0 0 0 0 -4.85
108 60 0 0 0 0 0 0 -5.9
112.5 60 0 0 0 0 0 0 -7
117 60 0 0 0 0 0 0 -7.98
121.5 60 0 0 0 0 0 0 -9.18
126 60 0 0 0 0 0 0 -10.74
130.5 60 0 0 0 0 0 0 -12.65
135 60 0 0 0 0 0 0 -14
139.5 60 0 0 0 0 0 0 -15.8
144 60 0 0 0 0 0 0 -17.2
148.5 60 0 0 0 0 0 0 -18.55
153 60 0 0 0 0 0 0 -19.3
157.5 60 0 0 0 0 0 0 -19.75
162 60 0 0 0 0 0 0 -19.8
166.5 60 0 0 0 0 0 0 -19.35
171 60 0 0 0 0 0 0 -19
175.5 60 0 0 0 0 0 0 -18.95
180 60 0 0 0 0 0 0 -18.5
0 67.5 0 0 0 0 0 0 5
4.5 67.5 0 0 0 0 0 0 4.91
9 67.5 0 0 0 0 0 0 4.82
13.5 67.5 0 0 0 0 0 0 4.695
18 67.5 0 0 0 0 0 0 4.44
22.5 67.5 0 0 0 0 0 0 4.2
27 67.5 0 0 0 0 0 0 3.96
31.5 67.5 0 0 0 0 0 0 3.705
36 67.5 0 0 0 0 0 0 3.56
40.5 67.5 0 0 0 0 0 0 3.38
45 67.5 0 0 0 0 0 0 3.2
49.5 67.5 0 0 0 0 0 0 3.02
54 67.5 0 0 0 0 0 0 2.68
58.5 67.5 0 0 0 0 0 0 2.18
63 67.5 0 0 0 0 0 0 1.76
67.5 67.5 0 0 0 0 0 0 1.3
72 67.5 0 0 0 0 0 0 0.76
76.5 67.5 0 0 0 0 0 0 0.13
81 67.5 0 0 0 0 0 0 -0.64
85.5 67.5 0 0 0 0 0 0 -1.28
90 67.5 0 0 0 0 0 0 -2
94.5 67.5 0 0 0 0 0 0 -2.99
99 67.5 0 0 0 0 0 0 -4.22
103.5 67.5 0 0 0 0 0 0 -4.85
108 67.5 0 0 0 0 0 0 -5.9
112.5 67.5 0 0 0 0 0 0 -7
117 67.5 0 0 0 0 0 0 -7.98
121.5 67.5 0 0 0 0 0 0 -9.18
126 67.5 0 0 0 0 0 0 -10.74
130.5 67.5 0 0 0 0 0 0 -12.65
135 67.5 0 0 0 0 0 0 -14
139.5 67.5 0 0 0 0 0 0 -15.8
144 67.5 0 0 0 0 0 0 -17.2
148.5 67.5 0 0 0 0 0 0 -18.55
153 67.5 0 0 0 0 0 0 -19.3
157.5 67.5 0 0 0 0 0 0 -19.75
162 67.5 0 0 0 0 0 0 -19.8
166.5 67.5 0 0 0 0 0 0 -19.35
171 67.5 0 0 0 0 0 0 -19
175.5 67.5 0 0 0 0 0 0 -18.95
180 67.5 0 0 0 0 0 0 -18.5
0 75 0 0 0 0 0 0 5
4.5 75 0 0 0 0 0 0 4.91
9 75 0 0 0 0 0 0 4.82
13.5 75 0 0 0 0 0 0 4.695
18 75 0 0 0 0 0 0 4.44
22.5 75 0 0 0 0 0 0 4.2
27 75 0 0 0 0 0 0 3.96
31.5 75 0 0 0 0 0 0 3.705
36 75 0 0 0 0 0 0 3.56
40.5 75 0 0 0 0 0 0 3.38
45 75 0 0 0 0 0 0 3.2
49.5 75 0 0 0 0 0 0 3.02
54 75 0 0 0 0 0 0 2.68
58.5 75 0 0 0 0 0 0 2.18
63 75 0 0 0 0 0 0 1.76
67.5 75 0 0 0 0 0 0 1.3
72 75 0 0 0 0 0 0 0.76
76.5 75 0 0 0 0 0 0 0.13
81 75 0 0 0 0 0 0 -0.64
85.5 75 0 0 0 0 0 0 -1.28
90 75 0 0 0 0 0 0 -2
94.5 75 0 0 0 0 0 0 -2.99
99 75 0 0 0 0 0 0 -4.22
103.5 75 0 0 0 0 0 0 -4.85
108 75 0 0 0 0 0 0 -5.9
112.5 75 0 0 0 0 0 0 -7
117 75 0 0 0 0 0 0 -7.98
121.5 75 0 0 0 0 0 0 -9.18
126 75 0 0 0 0 0 0 -10.74
130.5 75 0 0 0 0 0 0 -12.65
135 75 0 0 0 0 0 0 -14
139.5 75 0 0 0 0 0 0 -15.8
144 75 0 0 0 0 0 0 -17.2
148.5 75 0 0 0 0 0 0 -18.55
153 75 0 0 0 0 0 0 -19.3
157.5 75 0 0 0 0 0 0 -19.75
162 75 0 0 0 0 0 0 -19.8
166.5 75 0 0 0 0 0 0 -19.35
171 75 0 0 0 0 0 0 -19
175.5 75 0 0 0 0 0 0 -18.95
180 75 0 0 0 0 0 0 -18.5
0 82.5 0 0 0 0 0 0 5
4.5 82.5 0 0 0 0 0 0 4.91
9 82.5 0 0 0 0 0 0 4.82
13.5 82.5 0 0 0 0 0 0 4.695
18 82.5 0 0 0 0 0 0 4.44
22.5 82.5 0 0 0 0 0 0 4.2
27 82.5 0 0 0 0 0 0 3.96
31.5 82.5 0 0 0 0 0 0 3.705
36 82.5 0 0 0 0 0 0 3.56
40.5 82.5 0 0 0 0 0 0 3.38
45 82.5 0 0 0 0 0 0 3.2
49.5 82.5 0 0 0 0 0 0 3.02
54 82.5 0 0 0 0 0 0 2.68
58.5 82.5 0 0 0 0 0 0 2.18
63 82.5 0 0 0 0 0 0 1.76
67.5 82.5 0 0 0 0 0 0 1.3
72 82.5 0 0 0 0 0 0 0.76
76.5 82.5 0 0 0 0 0 0 0.13
81 82.5 0 0 0 0 0 0 -0.64
85.5 82.5 0 0 0 0 0 0 -1.28
90 82.5 0 0 0 0 0 0 -2
94.5 82.5 0 0 0 0 0 0 -2.99
99 82.5 0 0 0 0 0 0 -4.22
103.5 82.5 0 0 0 0 0 0 -4.85
108 82.5 0 0 0 0 0 0 -5.9
112.5 82.5 0 0 0 0 0 0 -7
117 82.5 0 0 0 0 0 0 -7.98
121.5 82.5 0 0 0 0 0 0 -9.18
126 82.5 0 0 0 0 0 0 -10.74
130.5 82.5 0 0 0 0 0 0 -12.65
135 82.5 0 0 0 0 0 0 -14
139.5 82.5 0 0 0 0 0 0 -15.8
144 82.5 0 0 0 0 0 0 -17.2
148.5 82.5 0 0 0 0 0 0 -18.55
153 82.5 0 0 0 0 0 0 -19.3
157.5 82.5 0 0 0 0 0 0 -19.75
162 82.5 0 0 0 0 0 0 -19.8
166.5 82.5 0 0 0 0 0 0 -19.35
171 82.5 0 0 0 0 0 0 -19
175.5 82.5 0 0 0 0 0 0 -18.95
180 82.5 0 0 0 0 0 0 -18.5
0 90 0 0 0 0 0 0 5
4.5 90 0 0 0 0 0 0 4.91
9 90 0 0 0 0 0 0 4.82
13.5 90 0 0 0 0 0 0 4.695
18 90 0 0 0 0 0 0 4.44
22.5 90 0 0 0 0 0 0 4.2
27 90 0 0 0 0 0 0 3.96
31.5 90 0 0 0 0 0 0 3.705
36 90 0 0 0 0 0 0 3.56
40.5 90 0 0 0 0 0 0 3.38
45 90 0 0 0 0 0 0 3.2
49.5 90 0 0 0 0 0 0 3.02
54 90 0 0 0 0 0 0 2.68
58.5 90 0 0 0 0 0 0 2.18
63 90 0 0 0 0 0 0 1.76
67.5 90 0 0 0 0 0 0 1.3
72 90 0 0 0 0 0 0 0.76
76.5 90 0 0 0 0 0 0 0.13
81 90 0 0 0 0 0 0 -0.64
85.5 90 0 0 0 0 0 0 -1.28
90 90 0 0 0 0 0 0 -2
94.5 90 0 0 0 0 0 0 -2.99
99 90 0 0 0 0 0 0 -4.22
103.5 90 0 0 0 0 0 0 -4.85
108 90 0 0 0 0 0 0 -5.9
112.5 90 0 0 0 0 0 0 -7
117 90 0 0 0 0 0 0 -7.98
121.5 90 0 0 0 0 0 0 -9.18
126 90 0 0 0 0 0 0 -10.74
130.5 90 0 0 0 0 0 0 -12.65
135 90 0 0 0 0 0 0 -14
139.5 90 0 0 0 0 0 0 -15.8
144 90 0 0 0 0 0 0 -17.2
148.5 90 0 0 0 0 0 0 -18.55
153 90 0 0 0 0 0 0 -19.3
157.5 90 0 0 0 0 0 0 -19.75
162 90 0 0 0 0 0 0 -19.8
166.5 90 0 0 0 0 0 0 -19.35
171 90 0 0 0 0 0 0 -19
175.5 90 0 0 0 0 0 0 -18.95
180 90 0 0 0 0 0 0 -18.5
0 97.5 0 0 0 0 0 0 5
4.5 97.5 0 0 0 0 0 0 4.91
9 97.5 0 0 0 0 0 0 4.82
13.5 97.5 0 0 0 0 0 0 4.695
18 97.5 0 0 0 0 0 0 4.44
22.5 97.5 0 0 0 0 0 0 4.2
27 97.5 0 0 0 0 0 0 3.96
31.5 97.5 0 0 0 0 0 0 3.705
36 97.5 0 0 0 0 0 0 3.56
40.5 97.5 0 0 0 0 0 0 3.38
45 97.5 0 0 0 0 0 0 3.2
49.5 97.5 0 0 0 0 0 0 3.02
54 97.5 0 0 0 0 0 0 2.68
58.5 97.5 0 0 0 0 0 0 2.18
63 97.5 0 0 0 0 0 0 1.76
67.5 97.5 0 0 0 0 0 0 1.3
72 97.5 0 0 0 0 0 0 0.76
76.5 97.5 0 0 0 0 0 0 0.13
81 97.5 0 0 0 0 0 0 -0.64
85.5 97.5 0 0 0 0 0 0 -1.28
90 97.5 0 0 0 0 0 0 -2
94.5 97.5 0 0 0 0 0 0 -2.99
99 97.5 0 0 0 0 0 0 -4.22
103.5 97.5 0 0 0 0 0 0 -4.85
108 97.5 0 0 0 0 0 0 -5.9
112.5 97.5 0 0 0 0 0 0 -7
117 97.5 0 0 0 0 0 0 -7.98
121.5 97.5 0 0 0 0 0 0 -9.18
126 97.5 0 0 0 0 0 0 -10.74
130.5 97.5 0 0 0 0 0 0 -12.65
135 97.5 0 0 0 0 0 0 -14
139.5 97.5 0 0 0 0 0 0 -15.8
144 97.5 0 0 0 0 0 0 -17.2
148.5 97.5 0 0 0 0 0 0 -18.55
153 97.5 0 0 0 0 0 0 -19.3
157.5 97.5 0 0 0 0 0 0 -19.75
162 97.5 0 0 0 0 0 0 -19.8
166.5 97.5 0 0 0 0 0 0 -19.35
171 97.5 0 0 0 0 0 0 -19
175.5 97.5 0 0 0 0 0 0 -18.95
180 97.5 0 0 0 0 0 0 -18.5
0 105 0 0 0 0 0 0 5
4.5 105 0 0 0 0 0 0 4.91
9 105 0 0 0 0 0 0 4.82
13.5 105 0 0 0 0 0 0 4.695
18 105 0 0 0 0 0 0 4.44
22.5 105 0 0 0 0 0 0 4.2
27 105 0 0 0 0 0 0 3.96
31.5 105 0 0 0 0 0 0 3.705
36 105 0 0 0 0 0 0 3.56
40.5 105 0 0 0 0 0 0 3.38
45 105 0 0 0 0 0 0 3.2
49.5 105 0 0 0 0 0 0 3.02
54 105 0 0 0 0 0 0 2.68
58.5 105 0 0 0 0 0 0 2.18
63 105 0 0 0 0 0 0 1.76
67.5 105 0 0 0 0 0 0 1.3
72 105 0 0 0 0 0 0 0.76
76.5 105 0 0 0 0 0 0 0.13
81 105 0 0 0 0 0 0 -0.64
85.5 105 0 0 0 0 0 0 -1.28
90 105 0 0 0 0 0 0 -2
94.5 105 0 0 0 0 0 0 -2.99
99 105 0 0 0 0 0 0 -4.22
103.5 105 0 0 0 0 0 0 -4.85
108 105 0 0 0 0 0 0 -5.9
112.5 105 0 0 0 0 0 0 -7
117 105 0 0 0 0 0 0 -7.98
121.5 105 0 0 0 0 0 0 -9.18
126 105 0 0 0 0 0 0 -10.74
130.5 105 0 0 0 0 0 0 -12.65
135 105 0 0 0 0 0 0 -14
139.5 105 0 0 0 0 0 0 -15.8
144 105 0 0 0 0 0 0 -17.2
148.5 105 0 0 0 0 0 0 -18.55
153 105 0 0 0 0 0 0 -19.3
157.5 105 0 0 0 0 0 0 -19.75
162 105 0 0 0 0 0 0 -19.8
166.5 105 0 0 0 0 0 0 -19.35
171 105 0 0 0 0 0 0 -19
175.5 105 0 0 0 0 0 0 -18.95
180 105 0 0 0 0 0 0 -18.5
0 112.5 0 0 0 0 0 0 5
4.5 112.5 0 0 0 0 0 0 4.91
9 112.5 0 0 0 0 0 0 4.82
13.5 112.5 0 0 0 0 0 0 4.695
18 112.5 0 0 0 0 0 0 4.44
22.5 112.5 0 0 0 0 0 0 4.2
27 112.5 0 0 0 0 0 0 3.96
31.5 112.5 0 0 0 0 0 0 3.705
36 112.5 0 0 0 0 0 0 3.56
40.5 112.5 0 0 0 0 0 0 3.38
45 112.5 0 0 0 0 0 0 3.2
49.5 112.5 0 0 0 0 0 0 3.02
54 112.5 0 0 0 0 0 0 2.68
58.5 112.5 0 0 0 0 0 0 2.18
63 112.5 0 0 0 0 0 0 1.76
67.5 112.5 0 0 0 0 0 0 1.3
72 112.5 0 0 0 0 0 0 0.76
76.5 112.5 0 0 0 0 0 0 0.13
81 112.5 0 0 0 0 0 0 -0.64
85.5 112.5 0 0 0 0 0 0 -1.28
90 112.5 0 0 0 0 0 0 -2
94.5 112.5 0 0 0 0 0 0 -2.99
99 112.5 0 0 0 0 0 0 -4.22
103.5 112.5 0 0 0 0 0 0 -4.85
108 112.5 0 0 0 0 0 0 -5.9
112.5 112.5 0 0 0 0 0 0 -7
117 112.5 0 0 0 0 0 0 -7.98
121.5 112.5 0 0 0 0 0 0 -9.18
126 112.5 0 0 0 0 0 0 -10.74
130.5 112.5 0 0 0 0 0 0 -12.65
135 112.5 0 0 0 0 0 0 -14
139.5 112.5 0 0 0 0 0 0 -15.8
144 112.5 0 0 0 0 0 0 -17.2
148.5 112.5 0 0 0 0 0 0 -18.55
153 112.5 0 0 0 0 0 0 -19.3
157.5 112.5 0 0 0 0 0 0 -19.75
162 112.5 0 0 0 0 0 0 -19.8
166.5 112.5 0 0 0 0 0 0 -19.35
171 112.5 0 0 0 0 0 0 -19
175.5 112.5 0 0 0 0 0 0 -18.95
180 112.5 0 0 0 0 0 0 -18.5
0 120 0 0 0 0 0 0 5
4.5 120 0 0 0 0 0 0 4.91
9 120 0 0 0 0 0 0 4.82
13.5 120 0 0 0 0 0 0 4.695
18 120 0 0 0 0 0 0 4.44
22.5 120 0 0 0 0 0 0 4.2
27 120 0 0 0 0 0 0 3.96
31.5 120 0 0 0 0 0 0 3.705
36 120 0 0 0 0 0 0 3.56
40.5 120 0 0 0 0 0 0 3.38
45 120 0 0 0 0 0 0 3.2
49.5 120 0 0 0 0 0 0 3.02
54 120 0 0 0 0 0 0 2.68
58.5 120 0 0 0 0 0 0 2.18
63 120 0 0 0 0 0 0 1.76
67.5 120 0 0 0 0 0 0 1.3
72 120 0 0 0 0 0 0 0.76
76.5 120 0 0 0 0 0 0 0.13
81 120 0 0 0 0 0 0 -0.64
85.5 120 0 0 0 0 0 0 -1.28
90 120 0 0 0 0 0 0 -2
94.5 120 0 0 0 0 0 0 -2.99
99 120 0 0 0 0 0 0 -4.22
103.5 120 0 0 0 0 0 0 -4.85
108 120 0 0 0 0 0 0 -5.9
112.5 120 0 0 0 0 0 0 -7
117 120 0 0 0 0 0 0 -7.98
121.5 120 0 0 0 0 0 0 -9.18
126 120 0 0 0 0 0 0 -10.74
130.5 120 0 0 0 0 0 0 -12.65
135 120 0 0 0 0 0 0 -14
139.5 120 0 0 0 0 0 0 -15.8
144 120 0 0 0 0 0 0 -17.2
148.5 120 0 0 0 0 0 0 -18.55
153 120 0 0 0 0 0 0 -19.3
157.5 120 0 0 0 0 0 0 -19.75
162 120 0 0 0 0 0 0 -19.8
166.5 120 0 0 0 0 0 0 -19.35
171 120 0 0 0 0 0 0 -19
175.5 120 0 0 0 0 0 0 -18.95
180 120 0 0 0 0 0 0 -18.5
0 127.5 0 0 0 0 0 0 5
4.5 127.5 0 0 0 0 0 0 4.91
9 127.5 0 0 0 0 0 0 4.82
13.5 127.5 0 0 0 0 0 0 4.695
18 127.5 0 0 0 0 0 0 4.44
22.5 127.5 0 0 0 0 0 0 4.2
27 127.5 0 0 0 0 0 0 3.96
31.5 127.5 0 0 0 0 0 0 3.705
36 127.5 0 0 0 0 0 0 3.56
40.5 127.5 0 0 0 0 0 0 3.38
45 127.5 0 0 0 0 0 0 3.2
49.5 127.5 0 0 0 0 0 0 3.02
54 127.5 0 0 0 0 0 0 2.68
58.5 127.5 0 0 0 0 0 0 2.18
63 127.5 0 0 0 0 0 0 1.76
67.5 127.5 0 0 0 0 0 0 1.3
72 127.5 0 0 0 0 0 0 0.76
76.5 127.5 0 0 0 0 0 0 0.13
81 127.5 0 0 0 0 0 0 -0.64
85.5 127.5 0 0 0 0 0 0 -1.28
90 127.5 0 0 0 0 0 0 -2
94.5 127.5 0 0 0 0 0 0 -2.99
99 127.5 0 0 0 0 0 0 -4.22
103.5 127.5 0 0 0 0 0 0 -4.85
108 127.5 0 0 0 0 0 0 -5.9
112.5 127.5 0 0 0 0 0 0 -7
117 127.5 0 0 0 0 0 0 -7.98
121.5 127.5 0 0 0 0 0 0 -9.18
126 127.5 0 0 0 0 0 0 -10.74
130.5 127.5 0 0 0 0 0 0 -12.65
135 127.5 0 0 0 0 0 0 -14
139.5 127.5 0 0 0 0 0 0 -15.8
144 127.5 0 0 0 0 0 0 -17.2
148.5 127.5 0 0 0 0 0 0 -18.55
153 127.5 0 0 0 0 0 0 -19.3
157.5 127.5 0 0 0 0 0 0 -19.75
162 127.5 0 0 0 0 0 0 -19.8
166.5 127.5 0 0 0 0 0 0 -19.35
171 127.5 0 0 0 0 0 0 -19
175.5 127.5 0 0 0 0 0 0 -18.95
180 127.5 0 0 0 0 0 0 -18.5
0 135 0 0 0 0 0 0 5
4.5 135 0 0 0 0 0 0 4.91
9 135 0 0 0 0 0 0 4.82
13.5 135 0 0 0 0 0 0 4.695
18 135 0 0 0 0 0 0 4.44
22.5 135 0 0 0 0 0 0 4.2
27 135 0 0 0 0 0 0 3.96
31.5 135 0 0 0 0 0 0 3.705
36 135 0 0 0 0 0 0 3.56
40.5 135 0 0 0 0 0 0 3.38
45 135 0 0 0 0 0 0 3.2
49.5 135 0 0 0 0 0 0 3.02
54 135 0 0 0 0 0 0 2.68
58.5 135 0 0 0 0 0 0 2.18
63 135 0 0 0 0 0 0 1.76
67.5 135 0 0 0 0 0 0 1.3
72 135 0 0 0 0 0 0 0.76
76.5 135 0 0 0 0 0 0 0.13
81 135 0 0 0 0 0 0 -0.64
85.5 135 0 0 0 0 0 0 -1.28
90 135 0 0 0 0 0 0 -2
94.5 135 0 0 0 0 0 0 -2.99
99 135 0 0 0 0 0 0 -4.22
103.5 135 0 0 0 0 0 0 -4.85
108 135 0 0 0 0 0 0 -5.9
112.5 135 0 0 0 0 0 0 -7
117 135 0 0 0 0 0 0 -7.98
121.5 135 0 0 0 0 0 0 -9.18
126 135 0 0 0 0 0 0 -10.74
130.5 135 0 0 0 0 0 0 -12.65
135 135 0 0 0 0 0 0 -14
139.5 135 0 0 0 0 0 0 -15.8
144 135 0 0 0 0 0 0 -17.2
148.5 135 0 0 0 0 0 0 -18.55
153 135 0 0 0 0 0 0 -19.3
157.5 135 0 0 0 0 0 0 -19.75
162 135 0 0 0 0 0 0 -19.8
166.5 135 0 0 0 0 0 0 -19.35
171 135 0 0 0 0 0 0 -19
175.5 135 0 0 0 0 0 0 -18.95
180 135 0 0 0 0 0 0 -18.5
0 142.5 0 0 0 0 0 0 5
4.5 142.5 0 0 0 0 0 0 4.91
9 142.5 0 0 0 0 0 0 4.82
13.5 142.5 0 0 0 0 0 0 4.695
18 142.5 0 0 0 0 0 0 4.44
22.5 142.5 0 0 0 0 0 0 4.2
27 142.5 0 0 0 0 0 0 3.96
31.5 142.5 0 0 0 0 0 0 3.705
36 142.5 0 0 0 0 0 0 3.56
40.5 142.5 0 0 0 0 0 0 3.38
45 142.5 0 0 0 0 0 0 3.2
49.5 142.5 0 0 0 0 0 0 3.02
54 142.5 0 0 0 0 0 0 2.68
58.5 142.5 0 0 0 0 0 0 2.18
63 142.5 0 0 0 0 0 0 1.76
67.5 142.5 0 0 0 0 0 0 1.3
72 142.5 0 0 0 0 0 0 0.76
76.5 142.5 0 0 0 0 0 0 0.13
81 142.5 0 0 0 0 0 0 -0.64
85.5 142.5 0 0 0 0 0 0 -1.28
90 142.5 0 0 0 0 0 0 -2
94.5 142.5 0 0 0 0 0 0 -2.99
99 142.5 0 0 0 0 0 0 -4.22
103.5 142.5 0 0 0 0 0 0 -4.85
108 142.5 0 0 0 0 0 0 -5.9
112.5 142.5 0 0 0 0 0 0 -7
117 142.5 0 0 0 0 0 0 -7.98
121.5 142.5 0 0 0 0 0 0 -9.18
126 142.5 0 0 0 0 0 0 -10.74
130.5 142.5 0 0 0 0 0 0 -12.65
135 142.5 0 0 0 0 0 0 -14
139.5 142.5 0 0 0 0 0 0 -15.8
144 142.5 0 0 0 0 0 0 -17.2
148.5 142.5 0 0 0 0 0 0 -18.55
153 142.5 0 0 0 0 0 0 -19.3
157.5 142.5 0 0 0 0 0 0 -19.75
162 142.5 0 0 0 0 0 0 -19.8
166.5 142.5 0 0 0 0 0 0 -19.35
171 142.5 0 0 0 0 0 0 -19
175.5 142.5 0 0 0 0 0 0 -18.95
180 142.5 0 0 0 0 0 0 -18.5
0 150 0 0 0 0 0 0 5
4.5 150 0 0 0 0 0 0 4.91
9 150 0 0 0 0 0 0 4.82
13.5 150 0 0 0 0 0 0 4.695
18 150 0 0 0 0 0 0 4.44
22.5 150 0 0 0 0 0 0 4.2
27 150 0 0 0 0 0 0 3.96
31.5 150 0 0 0 0 0 0 3.705
36 150 0 0 0 0 0 0 3.56
40.5 150 0 0 0 0 0 0 3.38
45 150 0 0 0 0 0 0 3.2
49.5 150 0 0 0 0 0 0 3.02
54 150 0 0 0 0 0 0 2.68
58.5 150 0 0 0 0 0 0 2.18
63 150 0 0 0 0 0 0 1.76
67.5 150 0 0 0 0 0 0 1.3
72 150 0 0 0 0 0 0 0.76
76.5 150 0 0 0 0 0 0 0.13
81 150 0 0 0 0 0 0 -0.64
85.5 150 0 0 0 0 0 0 -1.28
90 150 0 0 0 0 0 0 -2
94.5 150 0 0 0 0 0 0 -2.99
99 150 0 0 0 0 0 0 -4.22
103.5 150 0 0 0 0 0 0 -4.85
108 150 0 0 0 0 0 0 -5.9
112.5 150 0 0 0 0 0 0 -7
117 150 0 0 0 0 0 0 -7.98
121.5 150 0 0 0 0 0 0 -9.18
126 150 0 0 0 0 0 0 -10.74
130.5 150 0 0 0 0 0 0 -12.65
135 150 0 0 0 0 0 0 -14
139.5 150 0 0 0 0 0 0 -15.8
144 150 0 0 0 0 0 0 -17.2
148.5 150 0 0 0 0 0 0 -18.55
153 150 0 0 0 0 0 0 -19.3
157.5 150 0 0 0 0 0 0 -19.75
162 150 0 0 0 0 0 0 -19.8
166.5 150 0 0 0 0 0 0 -19.35
171 150 0 0 0 0 0 0 -19
175.5 150 0 0 0 0 0 0 -18.95
180 150 0 0 0 0 0 0 -18.5
0 157.5 0 0 0 0 0 0 5
4.5 157.5 0 0 0 0 0 0 4.91
9 157.5 0 0 0 0 0 0 4.82
13.5 157.5 0 0 0 0 0 0 4.695
18 157.5 0 0 0 0 0 0 4.44
22.5 157.5 0 0 0 0 0 0 4.2
27 157.5 0 0 0 0 0 0 3.96
31.5 157.5 0 0 0 0 0 0 3.705
36 157.5 0 0 0 0 0 0 3.56
40.5 157.5 0 0 0 0 0 0 3.38
45 157.5 0 0 0 0 0 0 3.2
49.5 157.5 0 0 0 0 0 0 3.02
54 157.5 0 0 0 0 0 0 2.68
58.5 157.5 0 0 0 0 0 0 2.18
63 157.5 0 0 0 0 0 0 1.76
67.5 157.5 0 0 0 0 0 0 1.3
72 157.5 0 0 0 0 0 0 0.76
76.5 157.5 0 0 0 0 0 0 0.13
81 157.5 0 0 0 0 0 0 -0.64
85.5 157.5 0 0 0 0 0 0 -1.28
90 157.5 0 0 0 0 0 0 -2
94.5 157.5 0 0 0 0 0 0 -2.99
99 157.5 0 0 0 0 0 0 -4.22
103.5 157.5 0 0 0 0 0 0 -4.85
108 157.5 0 0 0 0 0 0 -5.9
112.5 157.5 0 0 0 0 0 0 -7
117 157.5 0 0 0 0 0 0 -7.98
121.5 157.5 0 0 0 0 0 0 -9.18
126 157.5 0 0 0 0 0 0 -10.74
130.5 157.5 0 0 0 0 0 0 -12.65
135 157.5 0 0 0 0 0 0 -14
139.5 157.5 0 0 0 0 0 0 -15.8
144 157.5 0 0 0 0 0 0 -17.2
148.5 157.5 0 0 0 0 0 0 -18.55
153 157.5 0 0 0 0 0 0 -19.3
157.5 157.5 0 0 0 0 0 0 -19.75
162 157.5 0 0 0 0 0 0 -19.8
166.5 157.5 0 0 0 0 0 0 -19.35
171 157.5 0 0 0 0 0 0 -19
175.5 157.5 0 0 0 0 0 0 -18.95
180 157.5 0 0 0 0 0 0 -18.5
0 165 0 0 0 0 0 0 5
4.5 165 0 0 0 0 0 0 4.91
9 165 0 0 0 0 0 0 4.82
13.5 165 0 0 0 0 0 0 4.695
18 165 0 0 0 0 0 0 4.44
22.5 165 0 0 0 0 0 0 4.2
27 165 0 0 0 0 0 0 3.96
31.5 165 0 0 0 0 0 0 3.705
36 165 0 0 0 0 0 0 3.56
40.5 165 0 0 0 0 0 0 3.38
45 165 0 0 0 0 0 0 3.2
49.5 165 0 0 0 0 0 0 3.02
54 165 0 0 0 0 0 0 2.68
58.5 165 0 0 0 0 0 0 2.18
63 165 0 0 0 0 0 0 1.76
67.5 165 0 0 0 0 0 0 1.3
72 165 0 0 0 0 0 0 0.76
76.5 165 0 0 0 0 0 0 0.13
81 165 0 0 0 0 0 0 -0.64
85.5 165 0 0 0 0 0 0 -1.28
90 165 0 0 0 0 0 0 -2
94.5 165 0 0 0 0 0 0 -2.99
99 165 0 0 0 0 0 0 -4.22
103.5 165 0 0 0 0 0 0 -4.85
108 165 0 0 0 0 0 0 -5.9
112.5 165 0 0 0 0 0 0 -7
117 165 0 0 0 0 0 0 -7.98
121.5 165 0 0 0 0 0 0 -9.18
126 165 0 0 0 0 0 0 -10.74
130.5 165 0 0 0 0 0 0 -12.65
135 165 0 0 0 0 0 0 -14
139.5 165 0 0 0 0 0 0 -15.8
144 165 0 0 0 0 0 0 -17.2
148.5 165 0 0 0 0 0 0 -18.55
153 165 0 0 0 0 0 0 -19.3
157.5 165 0 0 0 0 0 0 -19.75
162 165 0 0 0 0 0 0 -19.8
166.5 165 0 0 0 0 0 0 -19.35
171 165 0 0 0 0 0 0 -19
175.5 165 0 0 0 0 0 0 -18.95
180 165 0 0 0 0 0 0 -18.5
0 172.5 0 0 0 0 0 0 5
4.5 172.5 0 0 0 0 0 0 4.91
9 172.5 0 0 0 0 0 0 4.82
13.5 172.5 0 0 0 0 0 0 4.695
18 172.5 0 0 0 0 0 0 4.44
22.5 172.5 0 0 0 0 0 0 4.2
27 172.5 0 0 0 0 0 0 3.96
31.5 172.5 0 0 0 0 0 0 3.705
36 172.5 0 0 0 0 0 0 3.56
40.5 172.5 0 0 0 0 0 0 3.38
45 172.5 0 0 0 0 0 0 3.2
49.5 172.5 0 0 0 0 0 0 3.02
54 172.5 0 0 0 0 0 0 2.68
58.5 172.5 0 0 0 0 0 0 2.18
63 172.5 0 0 0 0 0 0 1.76
67.5 172.5 0 0 0 0 0 0 1.3
72 172.5 0 0 0 0 0 0 0.76
76.5 172.5 0 0 0 0 0 0 0.13
81 172.5 0 0 0 0 0 0 -0.64
85.5 172.5 0 0 0 0 0 0 -1.28
90 172.5 0 0 0 0 0 0 -2
94.5 172.5 0 0 0 0 0 0 -2.99
99 172.5 0 0 0 0 0 0 -4.22
103.5 172.5 0 0 0 0 0 0 -4.85
108 172.5 0 0 0 0 0 0 -5.9
112.5 172.5 0 0 0 0 0 0 -7
117 172.5 0 0 0 0 0 0 -7.98
121.5 172.5 0 0 0 0 0 0 -9.18
126 172.5 0 0 0 0 0 0 -10.74
130.5 172.5 0 0 0 0 0 0 -12.65
135 172.5 0 0 0 0 0 0 -14
139.5 172.5 0 0 0 0 0 0 -15.8
144 172.5 0 0 0 0 0 0 -17.2
148.5 172.5 0 0 0 0 0 0 -18.55
153 172.5 0 0 0 0 0 0 -19.3
157.5 172.5 0 0 0 0 0 0 -19.75
162 172.5 0 0 0 0 0 0 -19.8
166.5 172.5 0 0 0 0 0 0 -19.35
171 172.5 0 0 0 0 0 0 -19
175.5 172.5 0 0 0 0 0 0 -18.95
180 172.5 0 0 0 0 0 0 -18.5
0 180 0 0 0 0 0 0 5
4.5 180 0 0 0 0 0 0 4.91
9 180 0 0 0 0 0 0 4.82
13.5 180 0 0 0 0 0 0 4.695
18 180 0 0 0 0 0 0 4.44
22.5 180 0 0 0 0 0 0 4.2
27 180 0 0 0 0 0 0 3.96
31.5 180 0 0 0 0 0 0 3.705
36 180 0 0 0 0 0 0 3.56
40.5 180 0 0 0 0 0 0 3.38
45 180 0 0 0 0 0 0 3.2
49.5 180 0 0 0 0 0 0 3.02
54 180 0 0 0 0 0 0 2.68
58.5 180 0 0 0 0 0 0 2.18
63 180 0 0 0 0 0 0 1.76
67.5 180 0 0 0 0 0 0 1.3
72 180 0 0 0 0 0 0 0.76
76.5 180 0 0 0 0 0 0 0.13
81 180 0 0 0 0 0 0 -0.64
85.5 180 0 0 0 0 0 0 -1.28
90 180 0 0 0 0 0 0 -2
94.5 180 0 0 0 0 0 0 -2.99
99 180 0 0 0 0 0 0 -4.22
103.5 180 0 0 0 0 0 0 -4.85
108 180 0 0 0 0 0 0 -5.9
112.5 180 0 0 0 0 0 0 -7
117 180 0 0 0 0 0 0 -7.98
121.5 180 0 0 0 0 0 0 -9.18
126 180 0 0 0 0 0 0 -10.74
130.5 180 0 0 0 0 0 0 -12.65
135 180 0 0 0 0 0 0 -14
139.5 180 0 0 0 0 0 0 -15.8
144 180 0 0 0 0 0 0 -17.2
148.5 180 0 0 0 0 0 0 -18.55
153 180 0 0 0 0 0 0 -19.3
157.5 180 0 0 0 0 0 0 -19.75
162 180 0 0 0 0 0 0 -19.8
166.5 180 0 0 0 0 0 0 -19.35
171 180 0 0 0 0 0 0 -19
175.5 180 0 0 0 0 0 0 -18.95
180 180 0 0 0 0 0 0 -18.5
0 187.5 0 0 0 0 0 0 5
4.5 187.5 0 0 0 0 0 0 4.91
9 187.5 0 0 0 0 0 0 4.82
13.5 187.5 0 0 0 0 0 0 4.695
18 187.5 0 0 0 0 0 0 4.44
22.5 187.5 0 0 0 0 0 0 4.2
27 187.5 0 0 0 0 0 0 3.96
31.5 187.5 0 0 0 0 0 0 3.705
36 187.5 0 0 0 0 0 0 3.56
40.5 187.5 0 0 0 0 0 0 3.38
45 187.5 0 0 0 0 0 0 3.2
49.5 187.5 0 0 0 0 0 0 3.02
54 187.5 0 0 0 0 0 0 2.68
58.5 187.5 0 0 0 0 0 0 2.18
63 187.5 0 0 0 0 0 0 1.76
67.5 187.5 0 0 0 0 0 0 1.3
72 187.5 0 0 0 0 0 0 0.76
76.5 187.5 0 0 0 0 0 0 0.13
81 187.5 0 0 0 0 0 0 -0.64
85.5 187.5 0 0 0 0 0 0 -1.28
90 187.5 0 0 0 0 0 0 -2
94.5 187.5 0 0 0 0 0 0 -2.99
99 187.5 0 0 0 0 0 0 -4.22
103.5 187.5 0 0 0 0 0 0 -4.85
108 187.5 0 0 0 0 0 0 -5.9
112.5 187.5 0 0 0 0 0 0 -7
117 187.5 0 0 0 0 0 0 -7.98
121.5 187.5 0 0 0 0 0 0 -9.18
126 187.5 0 0 0 0 0 0 -10.74
130.5 187.5 0 0 0 0 0 0 -12.65
135 187.5 0 0 0 0 0 0 -14
139.5 187.5 0 0 0 0 0 0 -15.8
144 187.5 0 0 0 0 0 0 -17.2
148.5 187.5 0 0 0 0 0 0 -18.55
153 187.5 0 0 0 0 0 0 -19.3
157.5 187.5 0 0 0 0 0 0 -19.75
162 187.5 0 0 0 0 0 0 -19.8
166.5 187.5 0 0 0 0 0 0 -19.35
171 187.5 0 0 0 0 0 0 -19
175.5 187.5 0 0 0 0 0 0 -18.95
180 187.5 0 0 0 0 0 0 -18.5
0 195 0 0 0 0 0 0 5
4.5 195 0 0 0 0 0 0 4.91
9 195 0 0 0 0 0 0 4.82
13.5 195 0 0 0 0 0 0 4.695
18 195 0 0 0 0 0 0 4.44
22.5 195 0 0 0 0 0 0 4.2
27 195 0 0 0 0 0 0 3.96
31.5 195 0 0 0 0 0 0 3.705
36 195 0 0 0 0 0 0 3.56
40.5 195 0 0 0 0 0 0 3.38
45 195 0 0 0 0 0 0 3.2
49.5 195 0 0 0 0 0 0 3.02
54 195 0 0 0 0 0 0 2.68
58.5 195 0 0 0 0 0 0 2.18
63 195 0 0 0 0 0 0 1.76
67.5 195 0 0 0 0 0 0 1.3
72 195 0 0 0 0 0 0 0.76
76.5 195 0 0 0 0 0 0 0.13
81 195 0 0 0 0 0 0 -0.64
85.5 195 0 0 0 0 0 0 -1.28
90 195 0 0 0 0 0 0 -2
94.5 195 0 0 0 0 0 0 -2.99
99 195 0 0 0 0 0 0 -4.22
103.5 195 0 0 0 0 0 0 -4.85
108 195 0 0 0 0 0 0 -5.9
112.5 195 0 0 0 0 0 0 -7
117 195 0 0 0 0 0 0 -7.98
121.5 195 0 0 0 0 0 0 -9.18
126 195 0 0 0 0 0 0 -10.74
130.5 195 0 0 0 0 0 0 -12.65
135 195 0 0 0 0 0 0 -14
139.5 195 0 0 0 0 0 0 -15.8
144 195 0 0 0 0 0 0 -17.2
148.5 195 0 0 0 0 0 0 -18.55
153 195 0 0 0 0 0 0 -19.3
157.5 195 0 0 0 0 0 0 -19.75
162 195 0 0 0 0 0 0 -19.8
166.5 195 0 0 0 0 0 0 -19.35
171 195 0 0 0 0 0 0 -19
175.5 195 0 0 0 0 0 0 -18.95
180 195 0 0 0 0 0 0 -18.5
0 202.5 0 0 0 0 0 0 5
4.5 202.5 0 0 0 0 0 0 4.91
9 202.5 0 0 0 0 0 0 4.82
13.5 202.5 0 0 0 0 0 0 4.695
18 202.5 0 0 0 0 0 0 4.44
22.5 202.5 0 0 0 0 0 0 4.2
27 202.5 0 0 0 0 0 0 3.96
31.5 202.5 0 0 0 0 0 0 3.705
36 202.5 0 0 0 0 0 0 3.56
40.5 202.5 0 0 0 0 0 0 3.38
45 202.5 0 0 0 0 0 0 3.2
49.5 202.5 0 0 0 0 0 0 3.02
54 202.5 0 0 0 0 0 0 2.68
58.5 202.5 0 0 0 0 0 0 2.18
63 202.5 0 0 0 0 0 0 1.76
67.5 202.5 0 0 0 0 0 0 1.3
72 202.5 0 0 0 0 0 0 0.76
76.5 202.5 0 0 0 0 0 0 0.13
81 202.5 0 0 0 0 0 0 -0.64
85.5 202.5 0 0 0 0 0 0 -1.28
90 202.5 0 0 0 0 0 0 -2
94.5 202.5 0 0 0 0 0 0 -2.99
99 202.5 0 0 0 0 0 0 -4.22
103.5 202.5 0 0 0 0 0 0 -4.85
108 202.5 0 0 0 0 0 0 -5.9
112.5 202.5 0 0 0 0 0 0 -7
117 202.5 0 0 0 0 0 0 -7.98
121.5 202.5 0 0 0 0 0 0 -9.18
126 202.5 0 0 0 0 0 0 -10.74
130.5 202.5 0 0 0 0 0 0 -12.65
135 202.5 0 0 0 0 0 0 -14
139.5 202.5 0 0 0 0 0 0 -15.8