##File Type: Far field
#Frequency: 1.57542e+09
#No. of Theta Samples: 41
#No. of Phi Samples: 49
#Far Field Type: Gain
#No. of Header Lines: 1
#    "Theta"    "Phi"    "Re(Etheta)"    "Im(Etheta)"    "Re(Ephi)"     "Im(Ephi)"    "Gain(Theta)"    "Gain(Phi)"    "Gain(Total)"
0 0 0 0 0 0 0 0 0
4.5 0 0 0 0 0 0 0 0.328037
9 0 0 0 0 0 0 0 0.63121
13.5 0 0 0 0 0 0 0 0.911199
18 0 0 0 0 0 0 0 1.16945
22.5 0 0 0 0 0 0 0 1.40723
27 0 0 0 0 0 0 0 1.62562
31.5 0 0 0 0 0 0 0 1.82557
36 0 0 0 0 0 0 0 2.00792
40.5 0 0 0 0 0 0 0 2.17339
45 0 0 0 0 0 0 0 2.32261
49.5 0 0 0 0 0 0 0 2.45613
54 0 0 0 0 0 0 0 2.57443
58.5 0 0 0 0 0 0 0 2.67791
63 0 0 0 0 0 0 0 2.76693
67.5 0 0 0 0 0 0 0 2.84178
72 0 0 0 0 0 0 0 2.9027
76.5 0 0 0 0 0 0 0 2.94988
81 0 0 0 0 0 0 0 2.98348
85.5 0 0 0 0 0 0 0 3.0036
90 0 0 0 0 0 0 0 3.0103
94.5 0 0 0 0 0 0 0 3.0036
99 0 0 0 0 0 0 0 2.98348
103.5 0 0 0 0 0 0 0 2.94988
108 0 0 0 0 0 0 0 2.9027
112.5 0 0 0 0 0 0 0 2.84178
117 0 0 0 0 0 0 0 2.76693
121.5 0 0 0 0 0 0 0 2.67791
126 0 0 0 0 0 0 0 2.57443
130.5 0 0 0 0 0 0 0 2.45613
135 0 0 0 0 0 0 0 2.32261
139.5 0 0 0 0 0 0 0 2.17339
144 0 0 0 0 0 0 0 2.00792
148.5 0 0 0 0 0 0 0 1.82557
153 0 0 0 0 0 0 0 1.62562
157.5 0 0 0 0 0 0 0 1.40723
162 0 0 0 0 0 0 0 1.16945
166.5 0 0 0 0 0 0 0 0.911199
171 0 0 0 0 0 0 0 0.63121
175.5 0 0 0 0 0 0 0 0.328037
180 0 0 0 0 0 0 0 -30
0 7.5 0 0 0 0 0 0 0
4.5 7.5 0 0 0 0 0 0 0.328037
9 7.5 0 0 0 0 0 0 0.63121
13.5 7.5 0 0 0 0 0 0 0.911199
18 7.5 0 0 0 0 0 0 1.16945
22.5 7.5 0 0 0 0 0 0 1.40723
27 7.5 0 0 0 0 0 0 1.62562
31.5 7.5 0 0 0 0 0 0 1.82557
36 7.5 0 0 0 0 0 0 2.00792
40.5 7.5 0 0 0 0 0 0 2.17339
45 7.5 0 0 0 0 0 0 2.32261
49.5 7.5 0 0 0 0 0 0 2.45613
54 7.5 0 0 0 0 0 0 2.57443
58.5 7.5 0 0 0 0 0 0 2.67791
63 7.5 0 0 0 0 0 0 2.76693
67.5 7.5 0 0 0 0 0 0 2.84178
72 7.5 0 0 0 0 0 0 2.9027
76.5 7.5 0 0 0 0 0 0 2.94988
81 7.5 0 0 0 0 0 0 2.98348
85.5 7.5 0 0 0 0 0 0 3.0036
90 7.5 0 0 0 0 0 0 3.0103
94.5 7.5 0 0 0 0 0 0 3.0036
99 7.5 0 0 0 0 0 0 2.98348
103.5 7.5 0 0 0 0 0 0 2.94988
108 7.5 0 0 0 0 0 0 2.9027
112.5 7.5 0 0 0 0 0 0 2.84178
117 7.5 0 0 0 0 0 0 2.76693
121.5 7.5 0 0 0 0 0 0 2.67791
126 7.5 0 0 0 0 0 0 2.57443
130.5 7.5 0 0 0 0 0 0 2.45613
135 7.5 0 0 0 0 0 0 2.32261
139.5 7.5 0 0 0 0 0 0 2.17339
144 7.5 0 0 0 0 0 0 2.00792
148.5 7.5 0 0 0 0 0 0 1.82557
153 7.5 0 0 0 0 0 0 1.62562
157.5 7.5 0 0 0 0 0 0 1.40723
162 7.5 0 0 0 0 0 0 1.16945
166.5 7.5 0 0 0 0 0 0 0.911199
171 7.5 0 0 0 0 0 0 0.63121
175.5 7.5 0 0 0 0 0 0 0.328037
180 7.5 0 0 0 0 0 0 -30
0 15 0 0 0 0 0 0 0
4.5 15 0 0 0 0 0 0 0.328037
9 15 0 0 0 0 0 0 0.63121
13.5 15 0 0 0 0 0 0 0.911199
18 15 0 0 0 0 0 0 1.16945
22.5 15 0 0 0 0 0 0 1.40723
27 15 0 0 0 0 0 0 1.62562
31.5 15 0 0 0 0 0 0 1.82557
36 15 0 0 0 0 0 0 2.00792
40.5 15 0 0 0 0 0 0 2.17339
45 15 0 0 0 0 0 0 2.32261
49.5 15 0 0 0 0 0 0 2.45613
54 15 0 0 0 0 0 0 2.57443
58.5 15 0 0 0 0 0 0 2.67791
63 15 0 0 0 0 0 0 2.76693
67.5 15 0 0 0 0 0 0 2.84178
72 15 0 0 0 0 0 0 2.9027
76.5 15 0 0 0 0 0 0 2.94988
81 15 0 0 0 0 0 0 2.98348
85.5 15 0 0 0 0 0 0 3.0036
90 15 0 0 0 0 0 0 3.0103
94.5 15 0 0 0 0 0 0 3.0036
99 15 0 0 0 0 0 0 2.98348
103.5 15 0 0 0 0 0 0 2.94988
108 15 0 0 0 0 0 0 2.9027
112.5 15 0 0 0 0 0 0 2.84178
117 15 0 0 0 0 0 0 2.76693
121.5 15 0 0 0 0 0 0 2.67791
126 15 0 0 0 0 0 0 2.57443
130.5 15 0 0 0 0 0 0 2.45613
135 15 0 0 0 0 0 0 2.32261
139.5 15 0 0 0 0 0 0 2.17339
144 15 0 0 0 0 0 0 2.00792
148.5 15 0 0 0 0 0 0 1.82557
153 15 0 0 0 0 0 0 1.62562
157.5 15 0 0 0 0 0 0 1.40723
162 15 0 0 0 0 0 0 1.16945
166.5 15 0 0 0 0 0 0 0.911199
171 15 0 0 0 0 0 0 0.63121
175.5 15 0 0 0 0 0 0 0.328037
180 15 0 0 0 0 0 0 -30
0 22.5 0 0 0 0 0 0 0
4.5 22.5 0 0 0 0 0 0 0.328037
9 22.5 0 0 0 0 0 0 0.63121
13.5 22.5 0 0 0 0 0 0 0.911199
18 22.5 0 0 0 0 0 0 1.16945
22.5 22.5 0 0 0 0 0 0 1.40723
27 22.5 0 0 0 0 0 0 1.62562
31.5 22.5 0 0 0 0 0 0 1.82557
36 22.5 0 0 0 0 0 0 2.00792
40.5 22.5 0 0 0 0 0 0 2.17339
45 22.5 0 0 0 0 0 0 2.32261
49.5 22.5 0 0 0 0 0 0 2.45613
54 22.5 0 0 0 0 0 0 2.57443
58.5 22.5 0 0 0 0 0 0 2.67791
63 22.5 0 0 0 0 0 0 2.76693
67.5 22.5 0 0 0 0 0 0 2.84178
72 22.5 0 0 0 0 0 0 2.9027
76.5 22.5 0 0 0 0 0 0 2.94988
81 22.5 0 0 0 0 0 0 2.98348
85.5 22.5 0 0 0 0 0 0 3.0036
90 22.5 0 0 0 0 0 0 3.0103
94.5 22.5 0 0 0 0 0 0 3.0036
99 22.5 0 0 0 0 0 0 2.98348
103.5 22.5 0 0 0 0 0 0 2.94988
108 22.5 0 0 0 0 0 0 2.9027
112.5 22.5 0 0 0 0 0 0 2.84178
117 22.5 0 0 0 0 0 0 2.76693
121.5 22.5 0 0 0 0 0 0 2.67791
126 22.5 0 0 0 0 0 0 2.57443
130.5 22.5 0 0 0 0 0 0 2.45613
135 22.5 0 0 0 0 0 0 2.32261
139.5 22.5 0 0 0 0 0 0 2.17339
144 22.5 0 0 0 0 0 0 2.00792
148.5 22.5 0 0 0 0 0 0 1.82557
153 22.5 0 0 0 0 0 0 1.62562
157.5 22.5 0 0 0 0 0 0 1.40723
162 22.5 0 0 0 0 0 0 1.16945
166.5 22.5 0 0 0 0 0 0 0.911199
171 22.5 0 0 0 0 0 0 0.63121
175.5 22.5 0 0 0 0 0 0 0.328037
180 22.5 0 0 0 0 0 0 -30
0 30 0 0 0 0 0 0 0
4.5 30 0 0 0 0 0 0 0.328037
9 30 0 0 0 0 0 0 0.63121
13.5 30 0 0 0 0 0 0 0.911199
18 30 0 0 0 0 0 0 1.16945
22.5 30 0 0 0 0 0 0 1.40723
27 30 0 0 0 0 0 0 1.62562
31.5 30 0 0 0 0 0 0 1.82557
36 30 0 0 0 0 0 0 2.00792
40.5 30 0 0 0 0 0 0 2.17339
45 30 0 0 0 0 0 0 2.32261
49.5 30 0 0 0 0 0 0 2.45613
54 30 0 0 0 0 0 0 2.57443
58.5 30 0 0 0 0 0 0 2.67791
63 30 0 0 0 0 0 0 2.76693
67.5 30 0 0 0 0 0 0 2.84178
72 30 0 0 0 0 0 0 2.9027
76.5 30 0 0 0 0 0 0 2.94988
81 30 0 0 0 0 0 0 2.98348
85.5 30 0 0 0 0 0 0 3.0036
90 30 0 0 0 0 0 0 3.0103
94.5 30 0 0 0 0 0 0 3.0036
99 30 0 0 0 0 0 0 2.98348
103.5 30 0 0 0 0 0 0 2.94988
108 30 0 0 0 0 0 0 2.9027
112.5 30 0 0 0 0 0 0 2.84178
117 30 0 0 0 0 0 0 2.76693
121.5 30 0 0 0 0 0 0 2.67791
126 30 0 0 0 0 0 0 2.57443
130.5 30 0 0 0 0 0 0 2.45613
135 30 0 0 0 0 0 0 2.32261
139.5 30 0 0 0 0 0 0 2.17339
144 30 0 0 0 0 0 0 2.00792
148.5 30 0 0 0 0 0 0 1.82557
153 30 0 0 0 0 0 0 1.62562
157.5 30 0 0 0 0 0 0 1.40723
162 30 0 0 0 0 0 0 1.16945
166.5 30 0 0 0 0 0 0 0.911199
171 30 0 0 0 0 0 0 0.63121
175.5 30 0 0 0 0 0 0 0.328037
180 30 0 0 0 0 0 0 -30
0 37.5 0 0 0 0 0 0 0
4.5 37.5 0 0 0 0 0 0 0.328037
9 37.5 0 0 0 0 0 0 0.63121
13.5 37.5 0 0 0 0 0 0 0.911199
18 37.5 0 0 0 0 0 0 1.16945
22.5 37.5 0 0 0 0 0 0 1.40723
27 37.5 0 0 0 0 0 0 1.62562
31.5 37.5 0 0 0 0 0 0 1.82557
36 37.5 0 0 0 0 0 0 2.00792
40.5 37.5 0 0 0 0 0 0 2.17339
45 37.5 0 0 0 0 0 0 2.32261
49.5 37.5 0 0 0 0 0 0 2.45613
54 37.5 0 0 0 0 0 0 2.57443
58.5 37.5 0 0 0 0 0 0 2.67791
63 37.5 0 0 0 0 0 0 2.76693
67.5 37.5 0 0 0 0 0 0 2.84178
72 37.5 0 0 0 0 0 0 2.9027
76.5 37.5 0 0 0 0 0 0 2.94988
81 37.5 0 0 0 0 0 0 2.98348
85.5 37.5 0 0 0 0 0 0 3.0036
90 37.5 0 0 0 0 0 0 3.0103
94.5 37.5 0 0 0 0 0 0 3.0036
99 37.5 0 0 0 0 0 0 2.98348
103.5 37.5 0 0 0 0 0 0 2.94988
108 37.5 0 0 0 0 0 0 2.9027
112.5 37.5 0 0 0 0 0 0 2.84178
117 37.5 0 0 0 0 0 0 2.76693
121.5 37.5 0 0 0 0 0 0 2.67791
126 37.5 0 0 0 0 0 0 2.57443
130.5 37.5 0 0 0 0 0 0 2.45613
135 37.5 0 0 0 0 0 0 2.32261
139.5 37.5 0 0 0 0 0 0 2.17339
144 37.5 0 0 0 0 0 0 2.00792
148.5 37.5 0 0 0 0 0 0 1.82557
153 37.5 0 0 0 0 0 0 1.62562
157.5 37.5 0 0 0 0 0 0 1.40723
162 37.5 0 0 0 0 0 0 1.16945
166.5 37.5 0 0 0 0 0 0 0.911199
171 37.5 0 0 0 0 0 0 0.63121
175.5 37.5 0 0 0 0 0 0 0.328037
180 37.5 0 0 0 0 0 0 -30
0 45 0 0 0 0 0 0 0
4.5 45 0 0 0 0 0 0 0.328037
9 45 0 0 0 0 0 0 0.63121
13.5 45 0 0 0 0 0 0 0.911199
18 45 0 0 0 0 0 0 1.16945
22.5 45 0 0 0 0 0 0 1.40723
27 45 0 0 0 0 0 0 1.62562
31.5 45 0 0 0 0 0 0 1.82557
36 45 0 0 0 0 0 0 2.00792
40.5 45 0 0 0 0 0 0 2.17339
45 45 0 0 0 0 0 0 2.32261
49.5 45 0 0 0 0 0 0 2.45613
54 45 0 0 0 0 0 0 2.57443
58.5 45 0 0 0 0 0 0 2.67791
63 45 0 0 0 0 0 0 2.76693
67.5 45 0 0 0 0 0 0 2.84178
72 45 0 0 0 0 0 0 2.9027
76.5 45 0 0 0 0 0 0 2.94988
81 45 0 0 0 0 0 0 2.98348
85.5 45 0 0 0 0 0 0 3.0036
90 45 0 0 0 0 0 0 3.0103
94.5 45 0 0 0 0 0 0 3.0036
99 45 0 0 0 0 0 0 2.98348
103.5 45 0 0 0 0 0 0 2.94988
108 45 0 0 0 0 0 0 2.9027
112.5 45 0 0 0 0 0 0 2.84178
117 45 0 0 0 0 0 0 2.76693
121.5 45 0 0 0 0 0 0 2.67791
126 45 0 0 0 0 0 0 2.57443
130.5 45 0 0 0 0 0 0 2.45613
135 45 0 0 0 0 0 0 2.32261
139.5 45 0 0 0 0 0 0 2.17339
144 45 0 0 0 0 0 0 2.00792
148.5 45 0 0 0 0 0 0 1.82557
153 45 0 0 0 0 0 0 1.62562
157.5 45 0 0 0 0 0 0 1.40723
162 45 0 0 0 0 0 0 1.16945
166.5 45 0 0 0 0 0 0 0.911199
171 45 0 0 0 0 0 0 0.63121
175.5 45 0 0 0 0 0 0 0.328037
180 45 0 0 0 0 0 0 -30
0 52.5 0 0 0 0 0 0 0
4.5 52.5 0 0 0 0 0 0 0.328037
9 52.5 0 0 0 0 0 0 0.63121
13.5 52.5 0 0 0 0 0 0 0.911199
18 52.5 0 0 0 0 0 0 1.16945
22.5 52.5 0 0 0 0 0 0 1.40723
27 52.5 0 0 0 0 0 0 1.62562
31.5 52.5 0 0 0 0 0 0 1.82557
36 52.5 0 0 0 0 0 0 2.00792
40.5 52.5 0 0 0 0 0 0 2.17339
45 52.5 0 0 0 0 0 0 2.32261
49.5 52.5 0 0 0 0 0 0 2.45613
54 52.5 0 0 0 0 0 0 2.57443
58.5 52.5 0 0 0 0 0 0 2.67791
63 52.5 0 0 0 0 0 0 2.76693
67.5 52.5 0 0 0 0 0 0 2.84178
72 52.5 0 0 0 0 0 0 2.9027
76.5 52.5 0 0 0 0 0 0 2.94988
81 52.5 0 0 0 0 0 0 2.98348
85.5 52.5 0 0 0 0 0 0 3.0036
90 52.5 0 0 0 0 0 0 3.0103
94.5 52.5 0 0 0 0 0 0 3.0036
99 52.5 0 0 0 0 0 0 2.98348
103.5 52.5 0 0 0 0 0 0 2.94988
108 52.5 0 0 0 0 0 0 2.9027
112.5 52.5 0 0 0 0 0 0 2.84178
117 52.5 0 0 0 0 0 0 2.76693
121.5 52.5 0 0 0 0 0 0 2.67791
126 52.5 0 0 0 0 0 0 2.57443
130.5 52.5 0 0 0 0 0 0 2.45613
135 52.5 0 0 0 0 0 0 2.32261
139.5 52.5 0 0 0 0 0 0 2.17339
144 52.5 0 0 0 0 0 0 2.00792
148.5 52.5 0 0 0 0 0 0 1.82557
153 52.5 0 0 0 0 0 0 1.62562
157.5 52.5 0 0 0 0 0 0 1.40723
162 52.5 0 0 0 0 0 0 1.16945
166.5 52.5 0 0 0 0 0 0 0.911199
171 52.5 0 0 0 0 0 0 0.63121
175.5 52.5 0 0 0 0 0 0 0.328037
180 52.5 0 0 0 0 0 0 -30
0 60 0 0 0 0 0 0 0
4.5 60 0 0 0 0 0 0 0.328037
9 60 0 0 0 0 0 0 0.63121
13.5 60 0 0 0 0 0 0 0.911199
18 60 0 0 0 0 0 0 1.16945
22.5 60 0 0 0 0 0 0 1.40723
27 60 0 0 0 0 0 0 1.62562
31.5 60 0 0 0 0 0 0 1.82557
36 60 0 0 0 0 0 0 2.00792
40.5 60 0 0 0 0 0 0 2.17339
45 60 0 0 0 0 0 0 2.32261
49.5 60 0 0 0 0 0 0 2.45613
54 60 0 0 0 0 0 0 2.57443
58.5 60 0 0 0 0 0 0 2.67791
63 60 0 0 0 0 0 0 2.76693
67.5 60 0 0 0 0 0 0 2.84178
72 60 0 0 0 0 0 0 2.9027
76.5 60 0 0 0 0 0 0 2.94988
81 60 0 0 0 0 0 0 2.98348
85.5 60 0 0 0 0 0 0 3.0036
90 60 0 0 0 0 0 0 3.0103
94.5 60 0 0 0 0 0 0 3.0036
99 60 0 0 0 0 0 0 2.98348
103.5 60 0 0 0 0 0 0 2.94988
108 60 0 0 0 0 0 0 2.9027
112.5 60 0 0 0 0 0 0 2.84178
117 60 0 0 0 0 0 0 2.76693
121.5 60 0 0 0 0 0 0 2.67791
126 60 0 0 0 0 0 0 2.57443
130.5 60 0 0 0 0 0 0 2.45613
135 60 0 0 0 0 0 0 2.32261
139.5 60 0 0 0 0 0 0 2.17339
144 60 0 0 0 0 0 0 2.00792
148.5 60 0 0 0 0 0 0 1.82557
153 60 0 0 0 0 0 0 1.62562
157.5 60 0 0 0 0 0 0 1.40723
162 60 0 0 0 0 0 0 1.16945
166.5 60 0 0 0 0 0 0 0.911199
171 60 0 0 0 0 0 0 0.63121
175.5 60 0 0 0 0 0 0 0.328037
180 60 0 0 0 0 0 0 -30
0 67.5 0 0 0 0 0 0 0
4.5 67.5 0 0 0 0 0 0 0.328037
9 67.5 0 0 0 0 0 0 0.63121
13.5 67.5 0 0 0 0 0 0 0.911199
18 67.5 0 0 0 0 0 0 1.16945
22.5 67.5 0 0 0 0 0 0 1.40723
27 67.5 0 0 0 0 0 0 1.62562
31.5 67.5 0 0 0 0 0 0 1.82557
36 67.5 0 0 0 0 0 0 2.00792
40.5 67.5 0 0 0 0 0 0 2.17339
45 67.5 0 0 0 0 0 0 2.32261
49.5 67.5 0 0 0 0 0 0 2.45613
54 67.5 0 0 0 0 0 0 2.57443
58.5 67.5 0 0 0 0 0 0 2.67791
63 67.5 0 0 0 0 0 0 2.76693
67.5 67.5 0 0 0 0 0 0 2.84178
72 67.5 0 0 0 0 0 0 2.9027
76.5 67.5 0 0 0 0 0 0 2.94988
81 67.5 0 0 0 0 0 0 2.98348
85.5 67.5 0 0 0 0 0 0 3.0036
90 67.5 0 0 0 0 0 0 3.0103
94.5 67.5 0 0 0 0 0 0 3.0036
99 67.5 0 0 0 0 0 0 2.98348
103.5 67.5 0 0 0 0 0 0 2.94988
108 67.5 0 0 0 0 0 0 2.9027
112.5 67.5 0 0 0 0 0 0 2.84178
117 67.5 0 0 0 0 0 0 2.76693
121.5 67.5 0 0 0 0 0 0 2.67791
126 67.5 0 0 0 0 0 0 2.57443
130.5 67.5 0 0 0 0 0 0 2.45613
135 67.5 0 0 0 0 0 0 2.32261
139.5 67.5 0 0 0 0 0 0 2.17339
144 67.5 0 0 0 0 0 0 2.00792
148.5 67.5 0 0 0 0 0 0 1.82557
153 67.5 0 0 0 0 0 0 1.62562
157.5 67.5 0 0 0 0 0 0 1.40723
162 67.5 0 0 0 0 0 0 1.16945
166.5 67.5 0 0 0 0 0 0 0.911199
171 67.5 0 0 0 0 0 0 0.63121
175.5 67.5 0 0 0 0 0 0 0.328037
180 67.5 0 0 0 0 0 0 -30
0 75 0 0 0 0 0 0 0
4.5 75 0 0 0 0 0 0 0.328037
9 75 0 0 0 0 0 0 0.63121
13.5 75 0 0 0 0 0 0 0.911199
18 75 0 0 0 0 0 0 1.16945
22.5 75 0 0 0 0 0 0 1.40723
27 75 0 0 0 0 0 0 1.62562
31.5 75 0 0 0 0 0 0 1.82557
36 75 0 0 0 0 0 0 2.00792
40.5 75 0 0 0 0 0 0 2.17339
45 75 0 0 0 0 0 0 2.32261
49.5 75 0 0 0 0 0 0 2.45613
54 75 0 0 0 0 0 0 2.57443
58.5 75 0 0 0 0 0 0 2.67791
63 75 0 0 0 0 0 0 2.76693
67.5 75 0 0 0 0 0 0 2.84178
72 75 0 0 0 0 0 0 2.9027
76.5 75 0 0 0 0 0 0 2.94988
81 75 0 0 0 0 0 0 2.98348
85.5 75 0 0 0 0 0 0 3.0036
90 75 0 0 0 0 0 0 3.0103
94.5 75 0 0 0 0 0 0 3.0036
99 75 0 0 0 0 0 0 2.98348
103.5 75 0 0 0 0 0 0 2.94988
108 75 0 0 0 0 0 0 2.9027
112.5 75 0 0 0 0 0 0 2.84178
117 75 0 0 0 0 0 0 2.76693
121.5 75 0 0 0 0 0 0 2.67791
126 75 0 0 0 0 0 0 2.57443
130.5 75 0 0 0 0 0 0 2.45613
135 75 0 0 0 0 0 0 2.32261
139.5 75 0 0 0 0 0 0 2.17339
144 75 0 0 0 0 0 0 2.00792
148.5 75 0 0 0 0 0 0 1.82557
153 75 0 0 0 0 0 0 1.62562
157.5 75 0 0 0 0 0 0 1.40723
162 75 0 0 0 0 0 0 1.16945
166.5 75 0 0 0 0 0 0 0.911199
171 75 0 0 0 0 0 0 0.63121
175.5 75 0 0 0 0 0 0 0.328037
180 75 0 0 0 0 0 0 -30
0 82.5 0 0 0 0 0 0 0
4.5 82.5 0 0 0 0 0 0 0.328037
9 82.5 0 0 0 0 0 0 0.63121
13.5 82.5 0 0 0 0 0 0 0.911199
18 82.5 0 0 0 0 0 0 1.16945
22.5 82.5 0 0 0 0 0 0 1.40723
27 82.5 0 0 0 0 0 0 1.62562
31.5 82.5 0 0 0 0 0 0 1.82557
36 82.5 0 0 0 0 0 0 2.00792
40.5 82.5 0 0 0 0 0 0 2.17339
45 82.5 0 0 0 0 0 0 2.32261
49.5 82.5 0 0 0 0 0 0 2.45613
54 82.5 0 0 0 0 0 0 2.57443
58.5 82.5 0 0 0 0 0 0 2.67791
63 82.5 0 0 0 0 0 0 2.76693
67.5 82.5 0 0 0 0 0 0 2.84178
72 82.5 0 0 0 0 0 0 2.9027
76.5 82.5 0 0 0 0 0 0 2.94988
81 82.5 0 0 0 0 0 0 2.98348
85.5 82.5 0 0 0 0 0 0 3.0036
90 82.5 0 0 0 0 0 0 3.0103
94.5 82.5 0 0 0 0 0 0 3.0036
99 82.5 0 0 0 0 0 0 2.98348
103.5 82.5 0 0 0 0 0 0 2.94988
108 82.5 0 0 0 0 0 0 2.9027
112.5 82.5 0 0 0 0 0 0 2.84178
117 82.5 0 0 0 0 0 0 2.76693
121.5 82.5 0 0 0 0 0 0 2.67791
126 82.5 0 0 0 0 0 0 2.57443
130.5 82.5 0 0 0 0 0 0 2.45613
135 82.5 0 0 0 0 0 0 2.32261
139.5 82.5 0 0 0 0 0 0 2.17339
144 82.5 0 0 0 0 0 0 2.00792
148.5 82.5 0 0 0 0 0 0 1.82557
153 82.5 0 0 0 0 0 0 1.62562
157.5 82.5 0 0 0 0 0 0 1.40723
162 82.5 0 0 0 0 0 0 1.16945
166.5 82.5 0 0 0 0 0 0 0.911199
171 82.5 0 0 0 0 0 0 0.63121
175.5 82.5 0 0 0 0 0 0 0.328037
180 82.5 0 0 0 0 0 0 -30
0 90 0 0 0 0 0 0 0
4.5 90 0 0 0 0 0 0 0.328037
9 90 0 0 0 0 0 0 0.63121
13.5 90 0 0 0 0 0 0 0.911199
18 90 0 0 0 0 0 0 1.16945
22.5 90 0 0 0 0 0 0 1.40723
27 90 0 0 0 0 0 0 1.62562
31.5 90 0 0 0 0 0 0 1.82557
36 90 0 0 0 0 0 0 2.00792
40.5 90 0 0 0 0 0 0 2.17339
45 90 0 0 0 0 0 0 2.32261
49.5 90 0 0 0 0 0 0 2.45613
54 90 0 0 0 0 0 0 2.57443
58.5 90 0 0 0 0 0 0 2.67791
63 90 0 0 0 0 0 0 2.76693
67.5 90 0 0 0 0 0 0 2.84178
72 90 0 0 0 0 0 0 2.9027
76.5 90 0 0 0 0 0 0 2.94988
81 90 0 0 0 0 0 0 2.98348
85.5 90 0 0 0 0 0 0 3.0036
90 90 0 0 0 0 0 0 3.0103
94.5 90 0 0 0 0 0 0 3.0036
99 90 0 0 0 0 0 0 2.98348
103.5 90 0 0 0 0 0 0 2.94988
108 90 0 0 0 0 0 0 2.9027
112.5 90 0 0 0 0 0 0 2.84178
117 90 0 0 0 0 0 0 2.76693
121.5 90 0 0 0 0 0 0 2.67791
126 90 0 0 0 0 0 0 2.57443
130.5 90 0 0 0 0 0 0 2.45613
135 90 0 0 0 0 0 0 2.32261
139.5 90 0 0 0 0 0 0 2.17339
144 90 0 0 0 0 0 0 2.00792
148.5 90 0 0 0 0 0 0 1.82557
153 90 0 0 0 0 0 0 1.62562
157.5 90 0 0 0 0 0 0 1.40723
162 90 0 0 0 0 0 0 1.16945
166.5 90 0 0 0 0 0 0 0.911199
171 90 0 0 0 0 0 0 0.63121
175.5 90 0 0 0 0 0 0 0.328037
180 90 0 0 0 0 0 0 -30
0 97.5 0 0 0 0 0 0 0
4.5 97.5 0 0 0 0 0 0 0.328037
9 97.5 0 0 0 0 0 0 0.63121
13.5 97.5 0 0 0 0 0 0 0.911199
18 97.5 0 0 0 0 0 0 1.16945
22.5 97.5 0 0 0 0 0 0 1.40723
27 97.5 0 0 0 0 0 0 1.62562
31.5 97.5 0 0 0 0 0 0 1.82557
36 97.5 0 0 0 0 0 0 2.00792
40.5 97.5 0 0 0 0 0 0 2.17339
45 97.5 0 0 0 0 0 0 2.32261
49.5 97.5 0 0 0 0 0 0 2.45613
54 97.5 0 0 0 0 0 0 2.57443
58.5 97.5 0 0 0 0 0 0 2.67791
63 97.5 0 0 0 0 0 0 2.76693
67.5 97.5 0 0 0 0 0 0 2.84178
72 97.5 0 0 0 0 0 0 2.9027
76.5 97.5 0 0 0 0 0 0 2.94988
81 97.5 0 0 0 0 0 0 2.98348
85.5 97.5 0 0 0 0 0 0 3.0036
90 97.5 0 0 0 0 0 0 3.0103
94.5 97.5 0 0 0 0 0 0 3.0036
99 97.5 0 0 0 0 0 0 2.98348
103.5 97.5 0 0 0 0 0 0 2.94988
108 97.5 0 0 0 0 0 0 2.9027
112.5 97.5 0 0 0 0 0 0 2.84178
117 97.5 0 0 0 0 0 0 2.76693
121.5 97.5 0 0 0 0 0 0 2.67791
126 97.5 0 0 0 0 0 0 2.57443
130.5 97.5 0 0 0 0 0 0 2.45613
135 97.5 0 0 0 0 0 0 2.32261
139.5 97.5 0 0 0 0 0 0 2.17339
144 97.5 0 0 0 0 0 0 2.00792
148.5 97.5 0 0 0 0 0 0 1.82557
153 97.5 0 0 0 0 0 0 1.62562
157.5 97.5 0 0 0 0 0 0 1.40723
162 97.5 0 0 0 0 0 0 1.16945
166.5 97.5 0 0 0 0 0 0 0.911199
171 97.5 0 0 0 0 0 0 0.63121
175.5 97.5 0 0 0 0 0 0 0.328037
180 97.5 0 0 0 0 0 0 -30
0 105 0 0 0 0 0 0 0
4.5 105 0 0 0 0 0 0 0.328037
9 105 0 0 0 0 0 0 0.63121
13.5 105 0 0 0 0 0 0 0.911199
18 105 0 0 0 0 0 0 1.16945
22.5 105 0 0 0 0 0 0 1.40723
27 105 0 0 0 0 0 0 1.62562
31.5 105 0 0 0 0 0 0 1.82557
36 105 0 0 0 0 0 0 2.00792
40.5 105 0 0 0 0 0 0 2.17339
45 105 0 0 0 0 0 0 2.32261
49.5 105 0 0 0 0 0 0 2.45613
54 105 0 0 0 0 0 0 2.57443
58.5 105 0 0 0 0 0 0 2.67791
63 105 0 0 0 0 0 0 2.76693
67.5 105 0 0 0 0 0 0 2.84178
72 105 0 0 0 0 0 0 2.9027
76.5 105 0 0 0 0 0 0 2.94988
81 105 0 0 0 0 0 0 2.98348
85.5 105 0 0 0 0 0 0 3.0036
90 105 0 0 0 0 0 0 3.0103
94.5 105 0 0 0 0 0 0 3.0036
99 105 0 0 0 0 0 0 2.98348
103.5 105 0 0 0 0 0 0 2.94988
108 105 0 0 0 0 0 0 2.9027
112.5 105 0 0 0 0 0 0 2.84178
117 105 0 0 0 0 0 0 2.76693
121.5 105 0 0 0 0 0 0 2.67791
126 105 0 0 0 0 0 0 2.57443
130.5 105 0 0 0 0 0 0 2.45613
135 105 0 0 0 0 0 0 2.32261
139.5 105 0 0 0 0 0 0 2.17339
144 105 0 0 0 0 0 0 2.00792
148.5 105 0 0 0 0 0 0 1.82557
153 105 0 0 0 0 0 0 1.62562
157.5 105 0 0 0 0 0 0 1.40723
162 105 0 0 0 0 0 0 1.16945
166.5 105 0 0 0 0 0 0 0.911199
171 105 0 0 0 0 0 0 0.63121
175.5 105 0 0 0 0 0 0 0.328037
180 105 0 0 0 0 0 0 -30
0 112.5 0 0 0 0 0 0 0
4.5 112.5 0 0 0 0 0 0 0.328037
9 112.5 0 0 0 0 0 0 0.63121
13.5 112.5 0 0 0 0 0 0 0.911199
18 112.5 0 0 0 0 0 0 1.16945
22.5 112.5 0 0 0 0 0 0 1.40723
27 112.5 0 0 0 0 0 0 1.62562
31.5 112.5 0 0 0 0 0 0 1.82557
36 112.5 0 0 0 0 0 0 2.00792
40.5 112.5 0 0 0 0 0 0 2.17339
45 112.5 0 0 0 0 0 0 2.32261
49.5 112.5 0 0 0 0 0 0 2.45613
54 112.5 0 0 0 0 0 0 2.57443
58.5 112.5 0 0 0 0 0 0 2.67791
63 112.5 0 0 0 0 0 0 2.76693
67.5 112.5 0 0 0 0 0 0 2.84178
72 112.5 0 0 0 0 0 0 2.9027
76.5 112.5 0 0 0 0 0 0 2.94988
81 112.5 0 0 0 0 0 0 2.98348
85.5 112.5 0 0 0 0 0 0 3.0036
90 112.5 0 0 0 0 0 0 3.0103
94.5 112.5 0 0 0 0 0 0 3.0036
99 112.5 0 0 0 0 0 0 2.98348
103.5 112.5 0 0 0 0 0 0 2.94988
108 112.5 0 0 0 0 0 0 2.9027
112.5 112.5 0 0 0 0 0 0 2.84178
117 112.5 0 0 0 0 0 0 2.76693
121.5 112.5 0 0 0 0 0 0 2.67791
126 112.5 0 0 0 0 0 0 2.57443
130.5 112.5 0 0 0 0 0 0 2.45613
135 112.5 0 0 0 0 0 0 2.32261
139.5 112.5 0 0 0 0 0 0 2.17339
144 112.5 0 0 0 0 0 0 2.00792
148.5 112.5 0 0 0 0 0 0 1.82557
153 112.5 0 0 0 0 0 0 1.62562
157.5 112.5 0 0 0 0 0 0 1.40723
162 112.5 0 0 0 0 0 0 1.16945
166.5 112.5 0 0 0 0 0 0 0.911199
171 112.5 0 0 0 0 0 0 0.63121
175.5 112.5 0 0 0 0 0 0 0.328037
180 112.5 0 0 0 0 0 0 -30
0 120 0 0 0 0 0 0 0
4.5 120 0 0 0 0 0 0 0.328037
9 120 0 0 0 0 0 0 0.63121
13.5 120 0 0 0 0 0 0 0.911199
18 120 0 0 0 0 0 0 1.16945
22.5 120 0 0 0 0 0 0 1.40723
27 120 0 0 0 0 0 0 1.62562
31.5 120 0 0 0 0 0 0 1.82557
36 120 0 0 0 0 0 0 2.00792
40.5 120 0 0 0 0 0 0 2.17339
45 120 0 0 0 0 0 0 2.32261
49.5 120 0 0 0 0 0 0 2.45613
54 120 0 0 0 0 0 0 2.57443
58.5 120 0 0 0 0 0 0 2.67791
63 120 0 0 0 0 0 0 2.76693
67.5 120 0 0 0 0 0 0 2.84178
72 120 0 0 0 0 0 0 2.9027
76.5 120 0 0 0 0 0 0 2.94988
81 120 0 0 0 0 0 0 2.98348
85.5 120 0 0 0 0 0 0 3.0036
90 120 0 0 0 0 0 0 3.0103
94.5 120 0 0 0 0 0 0 3.0036
99 120 0 0 0 0 0 0 2.98348
103.5 120 0 0 0 0 0 0 2.94988
108 120 0 0 0 0 0 0 2.9027
112.5 120 0 0 0 0 0 0 2.84178
117 120 0 0 0 0 0 0 2.76693
121.5 120 0 0 0 0 0 0 2.67791
126 120 0 0 0 0 0 0 2.57443
130.5 120 0 0 0 0 0 0 2.45613
135 120 0 0 0 0 0 0 2.32261
139.5 120 0 0 0 0 0 0 2.17339
144 120 0 0 0 0 0 0 2.00792
148.5 120 0 0 0 0 0 0 1.82557
153 120 0 0 0 0 0 0 1.62562
157.5 120 0 0 0 0 0 0 1.40723
162 120 0 0 0 0 0 0 1.16945
166.5 120 0 0 0 0 0 0 0.911199
171 120 0 0 0 0 0 0 0.63121
175.5 120 0 0 0 0 0 0 0.328037
180 120 0 0 0 0 0 0 -30
0 127.5 0 0 0 0 0 0 0
4.5 127.5 0 0 0 0 0 0 0.328037
9 127.5 0 0 0 0 0 0 0.63121
13.5 127.5 0 0 0 0 0 0 0.911199
18 127.5 0 0 0 0 0 0 1.16945
22.5 127.5 0 0 0 0 0 0 1.40723
27 127.5 0 0 0 0 0 0 1.62562
31.5 127.5 0 0 0 0 0 0 1.82557
36 127.5 0 0 0 0 0 0 2.00792
40.5 127.5 0 0 0 0 0 0 2.17339
45 127.5 0 0 0 0 0 0 2.32261
49.5 127.5 0 0 0 0 0 0 2.45613
54 127.5 0 0 0 0 0 0 2.57443
58.5 127.5 0 0 0 0 0 0 2.67791
63 127.5 0 0 0 0 0 0 2.76693
67.5 127.5 0 0 0 0 0 0 2.84178
72 127.5 0 0 0 0 0 0 2.9027
76.5 127.5 0 0 0 0 0 0 2.94988
81 127.5 0 0 0 0 0 0 2.98348
85.5 127.5 0 0 0 0 0 0 3.0036
90 127.5 0 0 0 0 0 0 3.0103
94.5 127.5 0 0 0 0 0 0 3.0036
99 127.5 0 0 0 0 0 0 2.98348
103.5 127.5 0 0 0 0 0 0 2.94988
108 127.5 0 0 0 0 0 0 2.9027
112.5 127.5 0 0 0 0 0 0 2.84178
117 127.5 0 0 0 0 0 0 2.76693
121.5 127.5 0 0 0 0 0 0 2.67791
126 127.5 0 0 0 0 0 0 2.57443
130.5 127.5 0 0 0 0 0 0 2.45613
135 127.5 0 0 0 0 0 0 2.32261
139.5 127.5 0 0 0 0 0 0 2.17339
144 127.5 0 0 0 0 0 0 2.00792
148.5 127.5 0 0 0 0 0 0 1.82557
153 127.5 0 0 0 0 0 0 1.62562
157.5 127.5 0 0 0 0 0 0 1.40723
162 127.5 0 0 0 0 0 0 1.16945
166.5 127.5 0 0 0 0 0 0 0.911199
171 127.5 0 0 0 0 0 0 0.63121
175.5 127.5 0 0 0 0 0 0 0.328037
180 127.5 0 0 0 0 0 0 -30
0 135 0 0 0 0 0 0 0
4.5 135 0 0 0 0 0 0 0.328037
9 135 0 0 0 0 0 0 0.63121
13.5 135 0 0 0 0 0 0 0.911199
18 135 0 0 0 0 0 0 1.16945
22.5 135 0 0 0 0 0 0 1.40723
27 135 0 0 0 0 0 0 1.62562
31.5 135 0 0 0 0 0 0 1.82557
36 135 0 0 0 0 0 0 2.00792
40.5 135 0 0 0 0 0 0 2.17339
45 135 0 0 0 0 0 0 2.32261
49.5 135 0 0 0 0 0 0 2.45613
54 135 0 0 0 0 0 0 2.57443
58.5 135 0 0 0 0 0 0 2.67791
63 135 0 0 0 0 0 0 2.76693
67.5 135 0 0 0 0 0 0 2.84178
72 135 0 0 0 0 0 0 2.9027
76.5 135 0 0 0 0 0 0 2.94988
81 135 0 0 0 0 0 0 2.98348
85.5 135 0 0 0 0 0 0 3.0036
90 135 0 0 0 0 0 0 3.0103
94.5 135 0 0 0 0 0 0 3.0036
99 135 0 0 0 0 0 0 2.98348
103.5 135 0 0 0 0 0 0 2.94988
108 135 0 0 0 0 0 0 2.9027
112.5 135 0 0 0 0 0 0 2.84178
117 135 0 0 0 0 0 0 2.76693
121.5 135 0 0 0 0 0 0 2.67791
126 135 0 0 0 0 0 0 2.57443
130.5 135 0 0 0 0 0 0 2.45613
135 135 0 0 0 0 0 0 2.32261
139.5 135 0 0 0 0 0 0 2.17339
144 135 0 0 0 0 0 0 2.00792
148.5 135 0 0 0 0 0 0 1.82557
153 135 0 0 0 0 0 0 1.62562
157.5 135 0 0 0 0 0 0 1.40723
162 135 0 0 0 0 0 0 1.16945
166.5 135 0 0 0 0 0 0 0.911199
171 135 0 0 0 0 0 0 0.63121
175.5 135 0 0 0 0 0 0 0.328037
180 135 0 0 0 0 0 0 -30
0 142.5 0 0 0 0 0 0 0
4.5 142.5 0 0 0 0 0 0 0.328037
9 142.5 0 0 0 0 0 0 0.63121
13.5 142.5 0 0 0 0 0 0 0.911199
18 142.5 0 0 0 0 0 0 1.16945
22.5 142.5 0 0 0 0 0 0 1.40723
27 142.5 0 0 0 0 0 0 1.62562
31.5 142.5 0 0 0 0 0 0 1.82557
36 142.5 0 0 0 0 0 0 2.00792
40.5 142.5 0 0 0 0 0 0 2.17339
45 142.5 0 0 0 0 0 0 2.32261
49.5 142.5 0 0 0 0 0 0 2.45613
54 142.5 0 0 0 0 0 0 2.57443
58.5 142.5 0 0 0 0 0 0 2.67791
63 142.5 0 0 0 0 0 0 2.76693
67.5 142.5 0 0 0 0 0 0 2.84178
72 142.5 0 0 0 0 0 0 2.9027
76.5 142.5 0 0 0 0 0 0 2.94988
81 142.5 0 0 0 0 0 0 2.98348
85.5 142.5 0 0 0 0 0 0 3.0036
90 142.5 0 0 0 0 0 0 3.0103
94.5 142.5 0 0 0 0 0 0 3.0036
99 142.5 0 0 0 0 0 0 2.98348
103.5 142.5 0 0 0 0 0 0 2.94988
108 142.5 0 0 0 0 0 0 2.9027
112.5 142.5 0 0 0 0 0 0 2.84178
117 142.5 0 0 0 0 0 0 2.76693
121.5 142.5 0 0 0 0 0 0 2.67791
126 142.5 0 0 0 0 0 0 2.57443
130.5 142.5 0 0 0 0 0 0 2.45613
135 142.5 0 0 0 0 0 0 2.32261
139.5 142.5 0 0 0 0 0 0 2.17339
144 142.5 0 0 0 0 0 0 2.00792
148.5 142.5 0 0 0 0 0 0 1.82557
153 142.5 0 0 0 0 0 0 1.62562
157.5 142.5 0 0 0 0 0 0 1.40723
162 142.5 0 0 0 0 0 0 1.16945
166.5 142.5 0 0 0 0 0 0 0.911199
171 142.5 0 0 0 0 0 0 0.63121
175.5 142.5 0 0 0 0 0 0 0.328037
180 142.5 0 0 0 0 0 0 -30
0 150 0 0 0 0 0 0 0
4.5 150 0 0 0 0 0 0 0.328037
9 150 0 0 0 0 0 0 0.63121
13.5 150 0 0 0 0 0 0 0.911199
18 150 0 0 0 0 0 0 1.16945
22.5 150 0 0 0 0 0 0 1.40723
27 150 0 0 0 0 0 0 1.62562
31.5 150 0 0 0 0 0 0 1.82557
36 150 0 0 0 0 0 0 2.00792
40.5 150 0 0 0 0 0 0 2.17339
45 150 0 0 0 0 0 0 2.32261
49.5 150 0 0 0 0 0 0 2.45613
54 150 0 0 0 0 0 0 2.57443
58.5 150 0 0 0 0 0 0 2.67791
63 150 0 0 0 0 0 0 2.76693
67.5 150 0 0 0 0 0 0 2.84178
72 150 0 0 0 0 0 0 2.9027
76.5 150 0 0 0 0 0 0 2.94988
81 150 0 0 0 0 0 0 2.98348
85.5 150 0 0 0 0 0 0 3.0036
90 150 0 0 0 0 0 0 3.0103
94.5 150 0 0 0 0 0 0 3.0036
99 150 0 0 0 0 0 0 2.98348
103.5 150 0 0 0 0 0 0 2.94988
108 150 0 0 0 0 0 0 2.9027
112.5 150 0 0 0 0 0 0 2.84178
117 150 0 0 0 0 0 0 2.76693
121.5 150 0 0 0 0 0 0 2.67791
126 150 0 0 0 0 0 0 2.57443
130.5 150 0 0 0 0 0 0 2.45613
135 150 0 0 0 0 0 0 2.32261
139.5 150 0 0 0 0 0 0 2.17339
144 150 0 0 0 0 0 0 2.00792
148.5 150 0 0 0 0 0 0 1.82557
153 150 0 0 0 0 0 0 1.62562
157.5 150 0 0 0 0 0 0 1.40723
162 150 0 0 0 0 0 0 1.16945
166.5 150 0 0 0 0 0 0 0.911199
171 150 0 0 0 0 0 0 0.63121
175.5 150 0 0 0 0 0 0 0.328037
180 150 0 0 0 0 0 0 -30
0 157.5 0 0 0 0 0 0 0
4.5 157.5 0 0 0 0 0 0 0.328037
9 157.5 0 0 0 0 0 0 0.63121
13.5 157.5 0 0 0 0 0 0 0.911199
18 157.5 0 0 0 0 0 0 1.16945
22.5 157.5 0 0 0 0 0 0 1.40723
27 157.5 0 0 0 0 0 0 1.62562
31.5 157.5 0 0 0 0 0 0 1.82557
36 157.5 0 0 0 0 0 0 2.00792
40.5 157.5 0 0 0 0 0 0 2.17339
45 157.5 0 0 0 0 0 0 2.32261
49.5 157.5 0 0 0 0 0 0 2.45613
54 157.5 0 0 0 0 0 0 2.57443
58.5 157.5 0 0 0 0 0 0 2.67791
63 157.5 0 0 0 0 0 0 2.76693
67.5 157.5 0 0 0 0 0 0 2.84178
72 157.5 0 0 0 0 0 0 2.9027
76.5 157.5 0 0 0 0 0 0 2.94988
81 157.5 0 0 0 0 0 0 2.98348
85.5 157.5 0 0 0 0 0 0 3.0036
90 157.5 0 0 0 0 0 0 3.0103
94.5 157.5 0 0 0 0 0 0 3.0036
99 157.5 0 0 0 0 0 0 2.98348
103.5 157.5 0 0 0 0 0 0 2.94988
108 157.5 0 0 0 0 0 0 2.9027
112.5 157.5 0 0 0 0 0 0 2.84178
117 157.5 0 0 0 0 0 0 2.76693
121.5 157.5 0 0 0 0 0 0 2.67791
126 157.5 0 0 0 0 0 0 2.57443
130.5 157.5 0 0 0 0 0 0 2.45613
135 157.5 0 0 0 0 0 0 2.32261
139.5 157.5 0 0 0 0 0 0 2.17339
144 157.5 0 0 0 0 0 0 2.00792
148.5 157.5 0 0 0 0 0 0 1.82557
153 157.5 0 0 0 0 0 0 1.62562
157.5 157.5 0 0 0 0 0 0 1.40723
162 157.5 0 0 0 0 0 0 1.16945
166.5 157.5 0 0 0 0 0 0 0.911199
171 157.5 0 0 0 0 0 0 0.63121
175.5 157.5 0 0 0 0 0 0 0.328037
180 157.5 0 0 0 0 0 0 -30
0 165 0 0 0 0 0 0 0
4.5 165 0 0 0 0 0 0 0.328037
9 165 0 0 0 0 0 0 0.63121
13.5 165 0 0 0 0 0 0 0.911199
18 165 0 0 0 0 0 0 1.16945
22.5 165 0 0 0 0 0 0 1.40723
27 165 0 0 0 0 0 0 1.62562
31.5 165 0 0 0 0 0 0 1.82557
36 165 0 0 0 0 0 0 2.00792
40.5 165 0 0 0 0 0 0 2.17339
45 165 0 0 0 0 0 0 2.32261
49.5 165 0 0 0 0 0 0 2.45613
54 165 0 0 0 0 0 0 2.57443
58.5 165 0 0 0 0 0 0 2.67791
63 165 0 0 0 0 0 0 2.76693
67.5 165 0 0 0 0 0 0 2.84178
72 165 0 0 0 0 0 0 2.9027
76.5 165 0 0 0 0 0 0 2.94988
81 165 0 0 0 0 0 0 2.98348
85.5 165 0 0 0 0 0 0 3.0036
90 165 0 0 0 0 0 0 3.0103
94.5 165 0 0 0 0 0 0 3.0036
99 165 0 0 0 0 0 0 2.98348
103.5 165 0 0 0 0 0 0 2.94988
108 165 0 0 0 0 0 0 2.9027
112.5 165 0 0 0 0 0 0 2.84178
117 165 0 0 0 0 0 0 2.76693
121.5 165 0 0 0 0 0 0 2.67791
126 165 0 0 0 0 0 0 2.57443
130.5 165 0 0 0 0 0 0 2.45613
135 165 0 0 0 0 0 0 2.32261
139.5 165 0 0 0 0 0 0 2.17339
144 165 0 0 0 0 0 0 2.00792
148.5 165 0 0 0 0 0 0 1.82557
153 165 0 0 0 0 0 0 1.62562
157.5 165 0 0 0 0 0 0 1.40723
162 165 0 0 0 0 0 0 1.16945
166.5 165 0 0 0 0 0 0 0.911199
171 165 0 0 0 0 0 0 0.63121
175.5 165 0 0 0 0 0 0 0.328037
180 165 0 0 0 0 0 0 -30
0 172.5 0 0 0 0 0 0 0
4.5 172.5 0 0 0 0 0 0 0.328037
9 172.5 0 0 0 0 0 0 0.63121
13.5 172.5 0 0 0 0 0 0 0.911199
18 172.5 0 0 0 0 0 0 1.16945
22.5 172.5 0 0 0 0 0 0 1.40723
27 172.5 0 0 0 0 0 0 1.62562
31.5 172.5 0 0 0 0 0 0 1.82557
36 172.5 0 0 0 0 0 0 2.00792
40.5 172.5 0 0 0 0 0 0 2.17339
45 172.5 0 0 0 0 0 0 2.32261
49.5 172.5 0 0 0 0 0 0 2.45613
54 172.5 0 0 0 0 0 0 2.57443
58.5 172.5 0 0 0 0 0 0 2.67791
63 172.5 0 0 0 0 0 0 2.76693
67.5 172.5 0 0 0 0 0 0 2.84178
72 172.5 0 0 0 0 0 0 2.9027
76.5 172.5 0 0 0 0 0 0 2.94988
81 172.5 0 0 0 0 0 0 2.98348
85.5 172.5 0 0 0 0 0 0 3.0036
90 172.5 0 0 0 0 0 0 3.0103
94.5 172.5 0 0 0 0 0 0 3.0036
99 172.5 0 0 0 0 0 0 2.98348
103.5 172.5 0 0 0 0 0 0 2.94988
108 172.5 0 0 0 0 0 0 2.9027
112.5 172.5 0 0 0 0 0 0 2.84178
117 172.5 0 0 0 0 0 0 2.76693
121.5 172.5 0 0 0 0 0 0 2.67791
126 172.5 0 0 0 0 0 0 2.57443
130.5 172.5 0 0 0 0 0 0 2.45613
135 172.5 0 0 0 0 0 0 2.32261
139.5 172.5 0 0 0 0 0 0 2.17339
144 172.5 0 0 0 0 0 0 2.00792
148.5 172.5 0 0 0 0 0 0 1.82557
153 172.5 0 0 0 0 0 0 1.62562
157.5 172.5 0 0 0 0 0 0 1.40723
162 172.5 0 0 0 0 0 0 1.16945
166.5 172.5 0 0 0 0 0 0 0.911199
171 172.5 0 0 0 0 0 0 0.63121
175.5 172.5 0 0 0 0 0 0 0.328037
180 172.5 0 0 0 0 0 0 -30
0 180 0 0 0 0 0 0 0
4.5 180 0 0 0 0 0 0 0.328037
9 180 0 0 0 0 0 0 0.63121
13.5 180 0 0 0 0 0 0 0.911199
18 180 0 0 0 0 0 0 1.16945
22.5 180 0 0 0 0 0 0 1.40723
27 180 0 0 0 0 0 0 1.62562
31.5 180 0 0 0 0 0 0 1.82557
36 180 0 0 0 0 0 0 2.00792
40.5 180 0 0 0 0 0 0 2.17339
45 180 0 0 0 0 0 0 2.32261
49.5 180 0 0 0 0 0 0 2.45613
54 180 0 0 0 0 0 0 2.57443
58.5 180 0 0 0 0 0 0 2.67791
63 180 0 0 0 0 0 0 2.76693
67.5 180 0 0 0 0 0 0 2.84178
72 180 0 0 0 0 0 0 2.9027
76.5 180 0 0 0 0 0 0 2.94988
81 180 0 0 0 0 0 0 2.98348
85.5 180 0 0 0 0 0 0 3.0036
90 180 0 0 0 0 0 0 3.0103
94.5 180 0 0 0 0 0 0 3.0036
99 180 0 0 0 0 0 0 2.98348
103.5 180 0 0 0 0 0 0 2.94988
108 180 0 0 0 0 0 0 2.9027
112.5 180 0 0 0 0 0 0 2.84178
117 180 0 0 0 0 0 0 2.76693
121.5 180 0 0 0 0 0 0 2.67791
126 180 0 0 0 0 0 0 2.57443
130.5 180 0 0 0 0 0 0 2.45613
135 180 0 0 0 0 0 0 2.32261
139.5 180 0 0 0 0 0 0 2.17339
144 180 0 0 0 0 0 0 2.00792
148.5 180 0 0 0 0 0 0 1.82557
153 180 0 0 0 0 0 0 1.62562
157.5 180 0 0 0 0 0 0 1.40723
162 180 0 0 0 0 0 0 1.16945
166.5 180 0 0 0 0 0 0 0.911199
171 180 0 0 0 0 0 0 0.63121
175.5 180 0 0 0 0 0 0 0.328037
180 180 0 0 0 0 0 0 -30
0 187.5 0 0 0 0 0 0 0
4.5 187.5 0 0 0 0 0 0 0.328037
9 187.5 0 0 0 0 0 0 0.63121
13.5 187.5 0 0 0 0 0 0 0.911199
18 187.5 0 0 0 0 0 0 1.16945
22.5 187.5 0 0 0 0 0 0 1.40723
27 187.5 0 0 0 0 0 0 1.62562
31.5 187.5 0 0 0 0 0 0 1.82557
36 187.5 0 0 0 0 0 0 2.00792
40.5 187.5 0 0 0 0 0 0 2.17339
45 187.5 0 0 0 0 0 0 2.32261
49.5 187.5 0 0 0 0 0 0 2.45613
54 187.5 0 0 0 0 0 0 2.57443
58.5 187.5 0 0 0 0 0 0 2.67791
63 187.5 0 0 0 0 0 0 2.76693
67.5 187.5 0 0 0 0 0 0 2.84178
72 187.5 0 0 0 0 0 0 2.9027
76.5 187.5 0 0 0 0 0 0 2.94988
81 187.5 0 0 0 0 0 0 2.98348
85.5 187.5 0 0 0 0 0 0 3.0036
90 187.5 0 0 0 0 0 0 3.0103