##File Type: Far field
#Frequency: 1.57542E+009
#No. of Theta Samples: 31
#No. of Phi Samples: 37
#Far Field Type: Gain
#No. of Header Lines: 1
#    "Theta"    "Phi"    "Re(Etheta)"    "Im(Etheta)"    "Re(Ephi)"    "Im(Ephi)"    "Gain(Theta)"    "Gain(Phi)"    "Gain(Total)"
0.000000000000E+000 0.000000000000E+000 0.0000000000E+000 0.0000000000E+000 0.0000000000E+000 0.0000000000E+000 0.0000000000E+000 0.0000000000E+000 -3.0000000000E+001
3.300000000000E+000 0.000000000000E+000 0.0000000000E+000 0.0000000000E+000 0.0000000000E+000 0.0000000000E+000 0.0000000000E+000 0.0000000000E+000 -3.0000000000E+001
9.700000000000E+000 0.000000000000E+000 0.0000000000E+000 0.0000000000E+000 0.0000000000E+000 0.0000000000E+000 0.0000000000E+000 0.0000000000E+000 -3.0000000000E+001
1.610000000000E+001 0.000000000000E+000 0.0000000000E+000 0.0000000000E+000 0.0000000000E+000 0.0000000000E+000 0.0000000000E+000 0.0000000000E+000 -3.0000000000E+001
2.250000000000E+001 0.000000000000E+000 0.0000000000E+000 0.0000000000E+000 0.0000000000E+000 0.0000000000E+000 0.0000000000E+000 0.0000000000E+000 -3.0000000000E+001
2.890000000000E+001 0.000000000000E+000 0.0000000000E+000 0.0000000000E+000 0.0000000000E+000 0.0000000000E+000 0.0000000000E+000 0.0000000000E+000 -3.0000000000E+001
3.530000000000E+001 0.000000000000E+000 0.0000000000E+000 0.0000000000E+000 0.0000000000E+000 0.0000000000E+000 0.0000000000E+000 0.0000000000E+000 -3.0000000000E+001
4.170000000000E+001 0.000000000000E+000 0.0000000000E+000 0.0000000000E+000 0.0000000000E+000 0.0000000000E+000 0.0000000000E+000 0.0000000000E+000 -3.0000000000E+001
4.810000000000E+001 0.000000000000E+000 0.0000000000E+000 0.0000000000E+000 0.0000000000E+000 0.0000000000E+000 0.0000000000E+000 0.0000000000E+000 -3.0000000000E+001
5.450000000000E+001 0.000000000000E+000 0.0000000000E+000 0.0000000000E+000 0.0000000000E+000 0.0000000000E+000 0.0000000000E+000 0.0000000000E+000 -3.0000000000E+001
6.090000000000E+001 0.000000000000E+000 0.0000000000E+000 0.0000000000E+000 0.0000000000E+000 0.0000000000E+000 0.0000000000E+000 0.0000000000E+000 -3.0000000000E+001
6.730000000000E+001 0.000000000000E+000 0.0000000000E+000 0.0000000000E+000 0.0000000000E+000 0.0000000000E+000 0.0000000000E+000 0.0000000000E+000 -2.9844406250E+001
7.370000000000E+001 0.000000000000E+000 0.0000000000E+000 0.0000000000E+000 0.0000000000E+000 0.0000000000E+000 0.0000000000E+000 0.0000000000E+000 -2.7165750000E+001
8.010000000000E+001 0.000000000000E+000 0.0000000000E+000 0.0000000000E+000 0.0000000000E+000 0.0000000000E+000 0.0000000000E+000 0.0000000000E+000 -2.3950000000E+001
8.650000000000E+001 0.000000000000E+000 0.0000000000E+000 0.0000000000E+000 0.0000000000E+000 0.0000000000E+000 0.0000000000E+000 0.0000000000E+000 -2.0754350000E+001
9.290000000000E+001 0.000000000000E+000 0.0000000000E+000 0.0000000000E+000 0.0000000000E+000 0.0000000000E+000 0.0000000000E+000 0.0000000000E+000 -1.7308442969E+001
9.930000000000E+001 0.000000000000E+000 0.0000000000E+000 0.0000000000E+000 0.0000000000E+000 0.0000000000E+000 0.0000000000E+000 0.0000000000E+000 -1.1102425750E+001
1.057000000000E+002 0.000000000000E+000 0.0000000000E+000 0.0000000000E+000 0.0000000000E+000 0.0000000000E+000 0.0000000000E+000 0.0000000000E+000 -8.2402500938E+000
1.121000000000E+002 0.000000000000E+000 0.0000000000E+000 0.0000000000E+000 0.0000000000E+000 0.0000000000E+000 0.0000000000E+000 0.0000000000E+000 -8.9312501250E+000
1.185000000000E+002 0.000000000000E+000 0.0000000000E+000 0.0000000000E+000 0.0000000000E+000 0.0000000000E+000 0.0000000000E+000 0.0000000000E+000 -1.5208625000E+001
1.249000000000E+002 0.000000000000E+000 0.0000000000E+000 0.0000000000E+000 0.0000000000E+000 0.0000000000E+000 0.0000000000E+000 0.0000000000E+000 -1.6994500000E+001
1.313000000000E+002 0.000000000000E+000 0.0000000000E+000 0.0000000000E+000 0.0000000000E+000 0.0000000000E+000 0.0000000000E+000 0.0000000000E+000 -1.1929800031E+001
1.377000000000E+002 0.000000000000E+000 0.0000000000E+000 0.0000000000E+000 0.0000000000E+000 0.0000000000E+000 0.0000000000E+000 0.0000000000E+000 -2.2226999688E+000
1.441000000000E+002 0.000000000000E+000 0.0000000000E+000 0.0000000000E+000 0.0000000000E+000 0.0000000000E+000 0.0000000000E+000 0.0000000000E+000 4.8187834375E-001
1.505000000000E+002 0.000000000000E+000 0.0000000000E+000 0.0000000000E+000 0.0000000000E+000 0.0000000000E+000 0.0000000000E+000 0.0000000000E+000 -5.3953758438E+000
1.569000000000E+002 0.000000000000E+000 0.0000000000E+000 0.0000000000E+000 0.0000000000E+000 0.0000000000E+000 0.0000000000E+000 0.0000000000E+000 4.4500121875E-001
1.633000000000E+002 0.000000000000E+000 0.0000000000E+000 0.0000000000E+000 0.0000000000E+000 0.0000000000E+000 0.0000000000E+000 0.0000000000E+000 1.2143495563E+001
1.697000000000E+002 0.000000000000E+000 0.0000000000E+000 0.0000000000E+000 0.0000000000E+000 0.0000000000E+000 0.0000000000E+000 0.0000000000E+000 1.6180286938E+001
1.761000000000E+002 0.000000000000E+000 0.0000000000E+000 0.0000000000E+000 0.0000000000E+000 0.0000000000E+000 0.0000000000E+000 0.0000000000E+000 1.4524376063E+001
1.796500000000E+002 0.000000000000E+000 0.0000000000E+000 0.0000000000E+000 0.0000000000E+000 0.0000000000E+000 0.0000000000E+000 0.0000000000E+000 1.4494837500E+001
1.800000000000E+002 0.000000000000E+000 0.0000000000E+000 0.0000000000E+000 0.0000000000E+000 0.0000000000E+000 0.0000000000E+000 0.0000000000E+000 1.4500000000E+001
0.000000000000E+000 1.000000000000E+001 0.0000000000E+000 0.0000000000E+000 0.0000000000E+000 0.0000000000E+000 0.0000000000E+000 0.0000000000E+000 -3.0000000000E+001
3.300000000000E+000 1.000000000000E+001 0.0000000000E+000 0.0000000000E+000 0.0000000000E+000 0.0000000000E+000 0.0000000000E+000 0.0000000000E+000 -3.0000000000E+001
9.700000000000E+000 1.000000000000E+001 0.0000000000E+000 0.0000000000E+000 0.0000000000E+000 0.0000000000E+000 0.0000000000E+000 0.0000000000E+000 -3.0000000000E+001
1.610000000000E+001 1.000000000000E+001 0.0000000000E+000 0.0000000000E+000 0.0000000000E+000 0.0000000000E+000 0.0000000000E+000 0.0000000000E+000 -3.0000000000E+001
2.250000000000E+001 1.000000000000E+001 0.0000000000E+000 0.0000000000E+000 0.0000000000E+000 0.0000000000E+000 0.0000000000E+000 0.0000000000E+000 -3.0000000000E+001
2.890000000000E+001 1.000000000000E+001 0.0000000000E+000 0.0000000000E+000 0.0000000000E+000 0.0000000000E+000 0.0000000000E+000 0.0000000000E+000 -3.0000000000E+001
3.530000000000E+001 1.000000000000E+001 0.0000000000E+000 0.0000000000E+000 0.0000000000E+000 0.0000000000E+000 0.0000000000E+000 0.0000000000E+000 -3.0000000000E+001
4.170000000000E+001 1.000000000000E+001 0.0000000000E+000 0.0000000000E+000 0.0000000000E+000 0.0000000000E+000 0.0000000000E+000 0.0000000000E+000 -3.0000000000E+001
4.810000000000E+001 1.000000000000E+001 0.0000000000E+000 0.0000000000E+000 0.0000000000E+000 0.0000000000E+000 0.0000000000E+000 0.0000000000E+000 -3.0000000000E+001
5.450000000000E+001 1.000000000000E+001 0.0000000000E+000 0.0000000000E+000 0.0000000000E+000 0.0000000000E+000 0.0000000000E+000 0.0000000000E+000 -3.0000000000E+001
6.090000000000E+001 1.000000000000E+001 0.0000000000E+000 0.0000000000E+000 0.0000000000E+000 0.0000000000E+000 0.0000000000E+000 0.0000000000E+000 -3.0000000000E+001
6.730000000000E+001 1.000000000000E+001 0.0000000000E+000 0.0000000000E+000 0.0000000000E+000 0.0000000000E+000 0.0000000000E+000 0.0000000000E+000 -2.9844406250E+001
7.370000000000E+001 1.000000000000E+001 0.0000000000E+000 0.0000000000E+000 0.0000000000E+000 0.0000000000E+000 0.0000000000E+000 0.0000000000E+000 -2.7165750000E+001
8.010000000000E+001 1.000000000000E+001 0.0000000000E+000 0.0000000000E+000 0.0000000000E+000 0.0000000000E+000 0.0000000000E+000 0.0000000000E+000 -2.3950000000E+001
8.650000000000E+001 1.000000000000E+001 0.0000000000E+000 0.0000000000E+000 0.0000000000E+000 0.0000000000E+000 0.0000000000E+000 0.0000000000E+000 -2.0754350000E+001
9.290000000000E+001 1.000000000000E+001 0.0000000000E+000 0.0000000000E+000 0.0000000000E+000 0.0000000000E+000 0.0000000000E+000 0.0000000000E+000 -1.7308442969E+001
9.930000000000E+001 1.000000000000E+001 0.0000000000E+000 0.0000000000E+000 0.0000000000E+000 0.0000000000E+000 0.0000000000E+000 0.0000000000E+000 -1.1102425750E+001
1.057000000000E+002 1.000000000000E+001 0.0000000000E+000 0.0000000000E+000 0.0000000000E+000 0.0000000000E+000 0.0000000000E+000 0.0000000000E+000 -8.2402500938E+000
1.121000000000E+002 1.000000000000E+001 0.0000000000E+000 0.0000000000E+000 0.0000000000E+000 0.0000000000E+000 0.0000000000E+000 0.0000000000E+000 -8.9312501250E+000
1.185000000000E+002 1.000000000000E+001 0.0000000000E+000 0.0000000000E+000 0.0000000000E+000 0.0000000000E+000 0.0000000000E+000 0.0000000000E+000 -1.5208625000E+001
1.249000000000E+002 1.000000000000E+001 0.0000000000E+000 0.0000000000E+000 0.0000000000E+000 0.0000000000E+000 0.0000000000E+000 0.0000000000E+000 -1.6994500000E+001
1.313000000000E+002 1.000000000000E+001 0.0000000000E+000 0.0000000000E+000 0.0000000000E+000 0.0000000000E+000 0.0000000000E+000 0.0000000000E+000 -1.1929800031E+001
1.377000000000E+002 1.000000000000E+001 0.0000000000E+000 0.0000000000E+000 0.0000000000E+000 0.0000000000E+000 0.0000000000E+000 0.0000000000E+000 -2.2226999688E+000
1.441000000000E+002 1.000000000000E+001 0.0000000000E+000 0.0000000000E+000 0.0000000000E+000 0.0000000000E+000 0.0000000000E+000 0.0000000000E+000 4.8187834375E-001
1.505000000000E+002 1.000000000000E+001 0.0000000000E+000 0.0000000000E+000 0.0000000000E+000 0.0000000000E+000 0.0000000000E+000 0.0000000000E+000 -5.3953758438E+000
1.569000000000E+002 1.000000000000E+001 0.0000000000E+000 0.0000000000E+000 0.0000000000E+000 0.0000000000E+000 0.0000000000E+000 0.0000000000E+000 4.4500121875E-001
1.633000000000E+002 1.000000000000E+001 0.0000000000E+000 0.0000000000E+000 0.0000000000E+000 0.0000000000E+000 0.0000000000E+000 0.0000000000E+000 1.2143495563E+001
1.697000000000E+002 1.000000000000E+001 0.0000000000E+000 0.0000000000E+000 0.0000000000E+000 0.0000000000E+000 0.0000000000E+000 0.0000000000E+000 1.6180286938E+001
1.761000000000E+002 1.000000000000E+001 0.0000000000E+000 0.0000000000E+000 0.0000000000E+000 0.0000000000E+000 0.0000000000E+000 0.0000000000E+000 1.4524376063E+001
1.796500000000E+002 1.000000000000E+001 0.0000000000E+000 0.0000000000E+000 0.0000000000E+000 0.0000000000E+000 0.0000000000E+000 0.0000000000E+000 1.4494837500E+001
1.800000000000E+002 1.000000000000E+001 0.0000000000E+000 0.0000000000E+000 0.0000000000E+000 0.0000000000E+000 0.0000000000E+000 0.0000000000E+000 1.4500000000E+001
0.000000000000E+000 2.000000000000E+001 0.0000000000E+000 0.0000000000E+000 0.0000000000E+000 0.0000000000E+000 0.0000000000E+000 0.0000000000E+000 -3.0000000000E+001
3.300000000000E+000 2.000000000000E+001 0.0000000000E+000 0.0000000000E+000 0.0000000000E+000 0.0000000000E+000 0.0000000000E+000 0.0000000000E+000 -3.0000000000E+001
9.700000000000E+000 2.000000000000E+001 0.0000000000E+000 0.0000000000E+000 0.0000000000E+000 0.0000000000E+000 0.0000000000E+000 0.0000000000E+000 -3.0000000000E+001
1.610000000000E+001 2.000000000000E+001 0.0000000000E+000 0.0000000000E+000 0.0000000000E+000 0.0000000000E+000 0.0000000000E+000 0.0000000000E+000 -3.0000000000E+001
2.250000000000E+001 2.000000000000E+001 0.0000000000E+000 0.0000000000E+000 0.0000000000E+000 0.0000000000E+000 0.0000000000E+000 0.0000000000E+000 -3.0000000000E+001
2.890000000000E+001 2.000000000000E+001 0.0000000000E+000 0.0000000000E+000 0.0000000000E+000 0.0000000000E+000 0.0000000000E+000 0.0000000000E+000 -3.0000000000E+001
3.530000000000E+001 2.000000000000E+001 0.0000000000E+000 0.0000000000E+000 0.0000000000E+000 0.0000000000E+000 0.0000000000E+000 0.0000000000E+000 -3.0000000000E+001
4.170000000000E+001 2.000000000000E+001 0.0000000000E+000 0.0000000000E+000 0.0000000000E+000 0.0000000000E+000 0.0000000000E+000 0.0000000000E+000 -3.0000000000E+001
4.810000000000E+001 2.000000000000E+001 0.0000000000E+000 0.0000000000E+000 0.0000000000E+000 0.0000000000E+000 0.0000000000E+000 0.0000000000E+000 -3.0000000000E+001
5.450000000000E+001 2.000000000000E+001 0.0000000000E+000 0.0000000000E+000 0.0000000000E+000 0.0000000000E+000 0.0000000000E+000 0.0000000000E+000 -3.0000000000E+001
6.090000000000E+001 2.000000000000E+001 0.0000000000E+000 0.0000000000E+000 0.0000000000E+000 0.0000000000E+000 0.0000000000E+000 0.0000000000E+000 -3.0000000000E+001
6.730000000000E+001 2.000000000000E+001 0.0000000000E+000 0.0000000000E+000 0.0000000000E+000 0.0000000000E+000 0.0000000000E+000 0.0000000000E+000 -2.9844406250E+001
7.370000000000E+001 2.000000000000E+001 0.0000000000E+000 0.0000000000E+000 0.0000000000E+000 0.0000000000E+000 0.0000000000E+000 0.0000000000E+000 -2.7165750000E+001
8.010000000000E+001 2.000000000000E+001 0.0000000000E+000 0.0000000000E+000 0.0000000000E+000 0.0000000000E+000 0.0000000000E+000 0.0000000000E+000 -2.3950000000E+001
8.650000000000E+001 2.000000000000E+001 0.0000000000E+000 0.0000000000E+000 0.0000000000E+000 0.0000000000E+000 0.0000000000E+000 0.0000000000E+000 -2.0754350000E+001
9.290000000000E+001 2.000000000000E+001 0.0000000000E+000 0.0000000000E+000 0.0000000000E+000 0.0000000000E+000 0.0000000000E+000 0.0000000000E+000 -1.7308442969E+001
9.930000000000E+001 2.000000000000E+001 0.0000000000E+000 0.0000000000E+000 0.0000000000E+000 0.0000000000E+000 0.0000000000E+000 0.0000000000E+000 -1.1102425750E+001
1.057000000000E+002 2.000000000000E+001 0.0000000000E+000 0.0000000000E+000 0.0000000000E+000 0.0000000000E+000 0.0000000000E+000 0.0000000000E+000 -8.2402500938E+000
1.121000000000E+002 2.000000000000E+001 0.0000000000E+000 0.0000000000E+000 0.0000000000E+000 0.0000000000E+000 0.0000000000E+000 0.0000000000E+000 -8.9312501250E+000
1.185000000000E+002 2.000000000000E+001 0.0000000000E+000 0.0000000000E+000 0.0000000000E+000 0.0000000000E+000 0.0000000000E+000 0.0000000000E+000 -1.5208625000E+001
1.249000000000E+002 2.000000000000E+001 0.0000000000E+000 0.0000000000E+000 0.0000000000E+000 0.0000000000E+000 0.0000000000E+000 0.0000000000E+000 -1.6994500000E+001
1.313000000000E+002 2.000000000000E+001 0.0000000000E+000 0.0000000000E+000 0.0000000000E+000 0.0000000000E+000 0.0000000000E+000 0.0000000000E+000 -1.1929800031E+001
1.377000000000E+002 2.000000000000E+001 0.0000000000E+000 0.0000000000E+000 0.0000000000E+000 0.0000000000E+000 0.0000000000E+000 0.0000000000E+000 -2.2226999688E+000
1.441000000000E+002 2.000000000000E+001 0.0000000000E+000 0.0000000000E+000 0.0000000000E+000 0.0000000000E+000 0.0000000000E+000 0.0000000000E+000 4.8187834375E-001
1.505000000000E+002 2.000000000000E+001 0.0000000000E+000 0.0000000000E+000 0.0000000000E+000 0.0000000000E+000 0.0000000000E+000 0.0000000000E+000 -5.3953758438E+000
1.569000000000E+002 2.000000000000E+001 0.0000000000E+000 0.0000000000E+000 0.0000000000E+000 0.0000000000E+000 0.0000000000E+000 0.0000000000E+000 4.4500121875E-001
1.633000000000E+002 2.000000000000E+001 0.0000000000E+000 0.0000000000E+000 0.0000000000E+000 0.0000000000E+000 0.0000000000E+000 0.0000000000E+000 1.2143495563E+001
1.697000000000E+002 2.000000000000E+001 0.0000000000E+000 0.0000000000E+000 0.0000000000E+000 0.0000000000E+000 0.0000000000E+000 0.0000000000E+000 1.6180286938E+001
1.761000000000E+002 2.000000000000E+001 0.0000000000E+000 0.0000000000E+000 0.0000000000E+000 0.0000000000E+000 0.0000000000E+000 0.0000000000E+000 1.4524376063E+001
1.796500000000E+002 2.000000000000E+001 0.0000000000E+000 0.0000000000E+000 0.0000000000E+000 0.0000000000E+000 0.0000000000E+000 0.0000000000E+000 1.4494837500E+001
1.800000000000E+002 2.000000000000E+001 0.0000000000E+000 0.0000000000E+000 0.0000000000E+000 0.0000000000E+000 0.0000000000E+000 0.0000000000E+000 1.4500000000E+001
0.000000000000E+000 3.000000000000E+001 0.0000000000E+000 0.0000000000E+000 0.0000000000E+000 0.0000000000E+000 0.0000000000E+000 0.0000000000E+000 -3.0000000000E+001
3.300000000000E+000 3.000000000000E+001 0.0000000000E+000 0.0000000000E+000 0.0000000000E+000 0.0000000000E+000 0.0000000000E+000 0.0000000000E+000 -3.0000000000E+001
9.700000000000E+000 3.000000000000E+001 0.0000000000E+000 0.0000000000E+000 0.0000000000E+000 0.0000000000E+000 0.0000000000E+000 0.0000000000E+000 -3.0000000000E+001
1.610000000000E+001 3.000000000000E+001 0.0000000000E+000 0.0000000000E+000 0.0000000000E+000 0.0000000000E+000 0.0000000000E+000 0.0000000000E+000 -3.0000000000E+001
2.250000000000E+001 3.000000000000E+001 0.0000000000E+000 0.0000000000E+000 0.0000000000E+000 0.0000000000E+000 0.0000000000E+000 0.0000000000E+000 -3.0000000000E+001
2.890000000000E+001 3.000000000000E+001 0.0000000000E+000 0.0000000000E+000 0.0000000000E+000 0.0000000000E+000 0.0000000000E+000 0.0000000000E+000 -3.0000000000E+001
3.530000000000E+001 3.000000000000E+001 0.0000000000E+000 0.0000000000E+000 0.0000000000E+000 0.0000000000E+000 0.0000000000E+000 0.0000000000E+000 -3.0000000000E+001
4.170000000000E+001 3.000000000000E+001 0.0000000000E+000 0.0000000000E+000 0.0000000000E+000 0.0000000000E+000 0.0000000000E+000 0.0000000000E+000 -3.0000000000E+001
4.810000000000E+001 3.000000000000E+001 0.0000000000E+000 0.0000000000E+000 0.0000000000E+000 0.0000000000E+000 0.0000000000E+000 0.0000000000E+000 -3.0000000000E+001
5.450000000000E+001 3.000000000000E+001 0.0000000000E+000 0.0000000000E+000 0.0000000000E+000 0.0000000000E+000 0.0000000000E+000 0.0000000000E+000 -3.0000000000E+001
6.090000000000E+001 3.000000000000E+001 0.0000000000E+000 0.0000000000E+000 0.0000000000E+000 0.0000000000E+000 0.0000000000E+000 0.0000000000E+000 -3.0000000000E+001
6.730000000000E+001 3.000000000000E+001 0.0000000000E+000 0.0000000000E+000 0.0000000000E+000 0.0000000000E+000 0.0000000000E+000 0.0000000000E+000 -2.9844406250E+001
7.370000000000E+001 3.000000000000E+001 0.0000000000E+000 0.0000000000E+000 0.0000000000E+000 0.0000000000E+000 0.0000000000E+000 0.0000000000E+000 -2.7165750000E+001
8.010000000000E+001 3.000000000000E+001 0.0000000000E+000 0.0000000000E+000 0.0000000000E+000 0.0000000000E+000 0.0000000000E+000 0.0000000000E+000 -2.3950000000E+001
8.650000000000E+001 3.000000000000E+001 0.0000000000E+000 0.0000000000E+000 0.0000000000E+000 0.0000000000E+000 0.0000000000E+000 0.0000000000E+000 -2.0754350000E+001
9.290000000000E+001 3.000000000000E+001 0.0000000000E+000 0.0000000000E+000 0.0000000000E+000 0.0000000000E+000 0.0000000000E+000 0.0000000000E+000 -1.7308442969E+001
9.930000000000E+001 3.000000000000E+001 0.0000000000E+000 0.0000000000E+000 0.0000000000E+000 0.0000000000E+000 0.0000000000E+000 0.0000000000E+000 -1.1102425750E+001
1.057000000000E+002 3.000000000000E+001 0.0000000000E+000 0.0000000000E+000 0.0000000000E+000 0.0000000000E+000 0.0000000000E+000 0.0000000000E+000 -8.2402500938E+000
1.121000000000E+002 3.000000000000E+001 0.0000000000E+000 0.0000000000E+000 0.0000000000E+000 0.0000000000E+000 0.0000000000E+000 0.0000000000E+000 -8.9312501250E+000
1.185000000000E+002 3.000000000000E+001 0.0000000000E+000 0.0000000000E+000 0.0000000000E+000 0.0000000000E+000 0.0000000000E+000 0.0000000000E+000 -1.5208625000E+001
1.249000000000E+002 3.000000000000E+001 0.0000000000E+000 0.0000000000E+000 0.0000000000E+000 0.0000000000E+000 0.0000000000E+000 0.0000000000E+000 -1.6994500000E+001
1.313000000000E+002 3.000000000000E+001 0.0000000000E+000 0.0000000000E+000 0.0000000000E+000 0.0000000000E+000 0.0000000000E+000 0.0000000000E+000 -1.1929800031E+001
1.377000000000E+002 3.000000000000E+001 0.0000000000E+000 0.0000000000E+000 0.0000000000E+000 0.0000000000E+000 0.0000000000E+000 0.0000000000E+000 -2.2226999688E+000
1.441000000000E+002 3.000000000000E+001 0.0000000000E+000 0.0000000000E+000 0.0000000000E+000 0.0000000000E+000 0.0000000000E+000 0.0000000000E+000 4.8187834375E-001
1.505000000000E+002 3.000000000000E+001 0.0000000000E+000 0.0000000000E+000 0.0000000000E+000 0.0000000000E+000 0.0000000000E+000 0.0000000000E+000 -5.3953758438E+000
1.569000000000E+002 3.000000000000E+001 0.0000000000E+000 0.0000000000E+000 0.0000000000E+000 0.0000000000E+000 0.0000000000E+000 0.0000000000E+000 4.4500121875E-001
1.633000000000E+002 3.000000000000E+001 0.0000000000E+000 0.0000000000E+000 0.0000000000E+000 0.0000000000E+000 0.0000000000E+000 0.0000000000E+000 1.2143495563E+001
1.697000000000E+002 3.000000000000E+001 0.0000000000E+000 0.0000000000E+000 0.0000000000E+000 0.0000000000E+000 0.0000000000E+000 0.0000000000E+000 1.6180286938E+001
1.761000000000E+002 3.000000000000E+001 0.0000000000E+000 0.0000000000E+000 0.0000000000E+000 0.0000000000E+000 0.0000000000E+000 0.0000000000E+000 1.4524376063E+001
1.796500000000E+002 3.000000000000E+001 0.0000000000E+000 0.0000000000E+000 0.0000000000E+000 0.0000000000E+000 0.0000000000E+000 0.0000000000E+000 1.4494837500E+001
1.800000000000E+002 3.000000000000E+001 0.0000000000E+000 0.0000000000E+000 0.0000000000E+000 0.0000000000E+000 0.0000000000E+000 0.0000000000E+000 1.4500000000E+001
0.000000000000E+000 4.000000000000E+001 0.0000000000E+000 0.0000000000E+000 0.0000000000E+000 0.0000000000E+000 0.0000000000E+000 0.0000000000E+000 -3.0000000000E+001
3.300000000000E+000 4.000000000000E+001 0.0000000000E+000 0.0000000000E+000 0.0000000000E+000 0.0000000000E+000 0.0000000000E+000 0.0000000000E+000 -3.0000000000E+001
9.700000000000E+000 4.000000000000E+001 0.0000000000E+000 0.0000000000E+000 0.0000000000E+000 0.0000000000E+000 0.0000000000E+000 0.0000000000E+000 -3.0000000000E+001
1.610000000000E+001 4.000000000000E+001 0.0000000000E+000 0.0000000000E+000 0.0000000000E+000 0.0000000000E+000 0.0000000000E+000 0.0000000000E+000 -3.0000000000E+001
2.250000000000E+001 4.000000000000E+001 0.0000000000E+000 0.0000000000E+000 0.0000000000E+000 0.0000000000E+000 0.0000000000E+000 0.0000000000E+000 -3.0000000000E+001
2.890000000000E+001 4.000000000000E+001 0.0000000000E+000 0.0000000000E+000 0.0000000000E+000 0.0000000000E+000 0.0000000000E+000 0.0000000000E+000 -3.0000000000E+001
3.530000000000E+001 4.000000000000E+001 0.0000000000E+000 0.0000000000E+000 0.0000000000E+000 0.0000000000E+000 0.0000000000E+000 0.0000000000E+000 -3.0000000000E+001
4.170000000000E+001 4.000000000000E+001 0.0000000000E+000 0.0000000000E+000 0.0000000000E+000 0.0000000000E+000 0.0000000000E+000 0.0000000000E+000 -3.0000000000E+001
4.810000000000E+001 4.000000000000E+001 0.0000000000E+000 0.0000000000E+000 0.0000000000E+000 0.0000000000E+000 0.0000000000E+000 0.0000000000E+000 -3.0000000000E+001
5.450000000000E+001 4.000000000000E+001 0.0000000000E+000 0.0000000000E+000 0.0000000000E+000 0.0000000000E+000 0.0000000000E+000 0.0000000000E+000 -3.0000000000E+001
6.090000000000E+001 4.000000000000E+001 0.0000000000E+000 0.0000000000E+000 0.0000000000E+000 0.0000000000E+000 0.0000000000E+000 0.0000000000E+000 -3.0000000000E+001
6.730000000000E+001 4.000000000000E+001 0.0000000000E+000 0.0000000000E+000 0.0000000000E+000 0.0000000000E+000 0.0000000000E+000 0.0000000000E+000 -2.9844406250E+001
7.370000000000E+001 4.000000000000E+001 0.0000000000E+000 0.0000000000E+000 0.0000000000E+000 0.0000000000E+000 0.0000000000E+000 0.0000000000E+000 -2.7165750000E+001
8.010000000000E+001 4.000000000000E+001 0.0000000000E+000 0.0000000000E+000 0.0000000000E+000 0.0000000000E+000 0.0000000000E+000 0.0000000000E+000 -2.3950000000E+001
8.650000000000E+001 4.000000000000E+001 0.0000000000E+000 0.0000000000E+000 0.0000000000E+000 0.0000000000E+000 0.0000000000E+000 0.0000000000E+000 -2.0754350000E+001
9.290000000000E+001 4.000000000000E+001 0.0000000000E+000 0.0000000000E+000 0.0000000000E+000 0.0000000000E+000 0.0000000000E+000 0.0000000000E+000 -1.7308442969E+001
9.930000000000E+001 4.000000000000E+001 0.0000000000E+000 0.0000000000E+000 0.0000000000E+000 0.0000000000E+000 0.0000000000E+000 0.0000000000E+000 -1.1102425750E+001
1.057000000000E+002 4.000000000000E+001 0.0000000000E+000 0.0000000000E+000 0.0000000000E+000 0.0000000000E+000 0.0000000000E+000 0.0000000000E+000 -8.2402500938E+000
1.121000000000E+002 4.000000000000E+001 0.0000000000E+000 0.0000000000E+000 0.0000000000E+000 0.0000000000E+000 0.0000000000E+000 0.0000000000E+000 -8.9312501250E+000
1.185000000000E+002 4.000000000000E+001 0.0000000000E+000 0.0000000000E+000 0.0000000000E+000 0.0000000000E+000 0.0000000000E+000 0.0000000000E+000 -1.5208625000E+001
1.249000000000E+002 4.000000000000E+001 0.0000000000E+000 0.0000000000E+000 0.0000000000E+000 0.0000000000E+000 0.0000000000E+000 0.0000000000E+000 -1.6994500000E+001
1.313000000000E+002 4.000000000000E+001 0.0000000000E+000 0.0000000000E+000 0.0000000000E+000 0.0000000000E+000 0.0000000000E+000 0.0000000000E+000 -1.1929800031E+001
1.377000000000E+002 4.000000000000E+001 0.0000000000E+000 0.0000000000E+000 0.0000000000E+000 0.0000000000E+000 0.0000000000E+000 0.0000000000E+000 -2.2226999688E+000
1.441000000000E+002 4.000000000000E+001 0.0000000000E+000 0.0000000000E+000 0.0000000000E+000 0.0000000000E+000 0.0000000000E+000 0.0000000000E+000 4.8187834375E-001
1.505000000000E+002 4.000000000000E+001 0.0000000000E+000 0.0000000000E+000 0.0000000000E+000 0.0000000000E+000 0.0000000000E+000 0.0000000000E+000 -5.3953758438E+000
1.569000000000E+002 4.000000000000E+001 0.0000000000E+000 0.0000000000E+000 0.0000000000E+000 0.0000000000E+000 0.0000000000E+000 0.0000000000E+000 4.4500121875E-001
1.633000000000E+002 4.000000000000E+001 0.0000000000E+000 0.0000000000E+000 0.0000000000E+000 0.0000000000E+000 0.0000000000E+000 0.0000000000E+000 1.2143495563E+001
1.697000000000E+002 4.000000000000E+001 0.0000000000E+000 0.0000000000E+000 0.0000000000E+000 0.0000000000E+000 0.0000000000E+000 0.0000000000E+000 1.6180286938E+001
1.761000000000E+002 4.000000000000E+001 0.0000000000E+000 0.0000000000E+000 0.0000000000E+000 0.0000000000E+000 0.0000000000E+000 0.0000000000E+000 1.4524376063E+001
1.796500000000E+002 4.000000000000E+001 0.0000000000E+000 0.0000000000E+000 0.0000000000E+000 0.0000000000E+000 0.0000000000E+000 0.0000000000E+000 1.4494837500E+001
1.800000000000E+002 4.000000000000E+001 0.0000000000E+000 0.0000000000E+000 0.0000000000E+000 0.0000000000E+000 0.0000000000E+000 0.0000000000E+000 1.4500000000E+001
0.000000000000E+000 5.000000000000E+001 0.0000000000E+000 0.0000000000E+000 0.0000000000E+000 0.0000000000E+000 0.0000000000E+000 0.0000000000E+000 -3.0000000000E+001
3.300000000000E+000 5.000000000000E+001 0.0000000000E+000 0.0000000000E+000 0.0000000000E+000 0.0000000000E+000 0.0000000000E+000 0.0000000000E+000 -3.0000000000E+001
9.700000000000E+000 5.000000000000E+001 0.0000000000E+000 0.0000000000E+000 0.0000000000E+000 0.0000000000E+000 0.0000000000E+000 0.0000000000E+000 -3.0000000000E+001
1.610000000000E+001 5.000000000000E+001 0.0000000000E+000 0.0000000000E+000 0.0000000000E+000 0.0000000000E+000 0.0000000000E+000 0.0000000000E+000 -3.0000000000E+001
2.250000000000E+001 5.000000000000E+001 0.0000000000E+000 0.0000000000E+000 0.0000000000E+000 0.0000000000E+000 0.0000000000E+000 0.0000000000E+000 -3.0000000000E+001
2.890000000000E+001 5.000000000000E+001 0.0000000000E+000 0.0000000000E+000 0.0000000000E+000 0.0000000000E+000 0.0000000000E+000 0.0000000000E+000 -3.0000000000E+001
3.530000000000E+001 5.000000000000E+001 0.0000000000E+000 0.0000000000E+000 0.0000000000E+000 0.0000000000E+000 0.0000000000E+000 0.0000000000E+000 -3.0000000000E+001
4.170000000000E+001 5.000000000000E+001 0.0000000000E+000 0.0000000000E+000 0.0000000000E+000 0.0000000000E+000 0.0000000000E+000 0.0000000000E+000 -3.0000000000E+001
4.810000000000E+001 5.000000000000E+001 0.0000000000E+000 0.0000000000E+000 0.0000000000E+000 0.0000000000E+000 0.0000000000E+000 0.0000000000E+000 -3.0000000000E+001
5.450000000000E+001 5.000000000000E+001 0.0000000000E+000 0.0000000000E+000 0.0000000000E+000 0.0000000000E+000 0.0000000000E+000 0.0000000000E+000 -3.0000000000E+001
6.090000000000E+001 5.000000000000E+001 0.0000000000E+000 0.0000000000E+000 0.0000000000E+000 0.0000000000E+000 0.0000000000E+000 0.0000000000E+000 -3.0000000000E+001
6.730000000000E+001 5.000000000000E+001 0.0000000000E+000 0.0000000000E+000 0.0000000000E+000 0.0000000000E+000 0.0000000000E+000 0.0000000000E+000 -2.9844406250E+001
7.370000000000E+001 5.000000000000E+001 0.0000000000E+000 0.0000000000E+000 0.0000000000E+000 0.0000000000E+000 0.0000000000E+000 0.0000000000E+000 -2.7165750000E+001
8.010000000000E+001 5.000000000000E+001 0.0000000000E+000 0.0000000000E+000 0.0000000000E+000 0.0000000000E+000 0.0000000000E+000 0.0000000000E+000 -2.3950000000E+001
8.650000000000E+001 5.000000000000E+001 0.0000000000E+000 0.0000000000E+000 0.0000000000E+000 0.0000000000E+000 0.0000000000E+000 0.0000000000E+000 -2.0754350000E+001
9.290000000000E+001 5.000000000000E+001 0.0000000000E+000 0.0000000000E+000 0.0000000000E+000 0.0000000000E+000 0.0000000000E+000 0.0000000000E+000 -1.7308442969E+001
9.930000000000E+001 5.000000000000E+001 0.0000000000E+000 0.0000000000E+000 0.0000000000E+000 0.0000000000E+000 0.0000000000E+000 0.0000000000E+000 -1.1102425750E+001
1.057000000000E+002 5.000000000000E+001 0.0000000000E+000 0.0000000000E+000 0.0000000000E+000 0.0000000000E+000 0.0000000000E+000 0.0000000000E+000 -8.2402500938E+000
1.121000000000E+002 5.000000000000E+001 0.0000000000E+000 0.0000000000E+000 0.0000000000E+000 0.0000000000E+000 0.0000000000E+000 0.0000000000E+000 -8.9312501250E+000
1.185000000000E+002 5.000000000000E+001 0.0000000000E+000 0.0000000000E+000 0.0000000000E+000 0.0000000000E+000 0.0000000000E+000 0.0000000000E+000 -1.5208625000E+001
1.249000000000E+002 5.000000000000E+001 0.0000000000E+000 0.0000000000E+000 0.0000000000E+000 0.0000000000E+000 0.0000000000E+000 0.0000000000E+000 -1.6994500000E+001
1.313000000000E+002 5.000000000000E+001 0.0000000000E+000 0.0000000000E+000 0.0000000000E+000 0.0000000000E+000 0.0000000000E+000 0.0000000000E+000 -1.1929800031E+001
1.377000000000E+002 5.000000000000E+001 0.0000000000E+000 0.0000000000E+000 0.0000000000E+000 0.0000000000E+000 0.0000000000E+000 0.0000000000E+000 -2.2226999688E+000