##File Type: Far field
#Frequency: 1.57542E+9
#No. of Theta Samples: 19
#No. of Phi Samples: 37
#Far Field Type: Gain
#No. of Header Lines: 1
#                 "Theta"           "Phi"             "Re(Etheta)"      "Im(Etheta)"      "Re(Ephi)"        "Im(Ephi)"        "Gain(Theta)"     "Gain(Phi)"       "Gain(Total)"  
0.000000000000E+000    0.000000000000E+000    -2.292461714630E+000    -1.220284985297E+000    9.140956032731E-017    0.000000000000E+000    7.516888068265E+000    -3.215527617691E+002    7.516888068265E+000
1.000000000000E+001    0.000000000000E+000    -2.265101983941E+000    -1.233271505134E+000    1.363861100828E-016    0.000000000000E+000    7.456696851728E+000    -3.180771913118E+002    7.456696851728E+000
2.000000000000E+001    0.000000000000E+000    -2.157185441461E+000    -1.193080750929E+000    1.416270246661E-016    0.000000000000E+000    7.064220086711E+000    -3.177496715399E+002    7.064220086711E+000
3.000000000000E+001    0.000000000000E+000    -1.987439666969E+000    -1.109178169965E+000    1.218658795831E-016    0.000000000000E+000    6.370864937621E+000    -3.190549516213E+002    6.370864937621E+000
4.000000000000E+001    0.000000000000E+000    -1.782908399592E+000    -9.959553381220E-001    1.116220823662E-016    0.000000000000E+000    5.429484309441E+000    -3.198175917648E+002    5.429484309441E+000
5.000000000000E+001    0.000000000000E+000    -1.573851468687E+000    -8.680887255769E-001    7.292703946942E-017    0.000000000000E+000    4.320219543902E+000    -3.235148225017E+002    4.320219543902E+000
6.000000000000E+001    0.000000000000E+000    -1.389448650758E+000    -7.343413734098E-001    5.137186416595E-017    0.000000000000E+000    3.154067312106E+000    -3.265580876586E+002    3.154067312106E+000
7.000000000000E+001    0.000000000000E+000    -1.254979628900E+000    -5.842810509626E-001    5.717958808125E-017    0.000000000000E+000    2.052172759162E+000    -3.256277737216E+002    2.052172759162E+000
8.000000000000E+001    0.000000000000E+000    -1.170082205208E+000    -3.181059129018E-001    1.151373060718E-017    0.000000000000E+000    9.014173703511E-001    -3.395482728932E+002    9.014173703511E-001
9.000000000000E+001    0.000000000000E+000    0.000000000000E+000    0.000000000000E+000    0.000000000000E+000    0.000000000000E+000    -1.797693134862E+308    -1.797693134862E+308    -1.797693134862E+308
1.000000000000E+002    0.000000000000E+000    0.000000000000E+000    0.000000000000E+000    0.000000000000E+000    0.000000000000E+000    -1.797693134862E+308    -1.797693134862E+308    -1.797693134862E+308
1.100000000000E+002    0.000000000000E+000    0.000000000000E+000    0.000000000000E+000    0.000000000000E+000    0.000000000000E+000    -1.797693134862E+308    -1.797693134862E+308    -1.797693134862E+308
1.200000000000E+002    0.000000000000E+000    0.000000000000E+000    0.000000000000E+000    0.000000000000E+000    0.000000000000E+000    -1.797693134862E+308    -1.797693134862E+308    -1.797693134862E+308
1.300000000000E+002    0.000000000000E+000    0.000000000000E+000    0.000000000000E+000    0.000000000000E+000    0.000000000000E+000    -1.797693134862E+308    -1.797693134862E+308    -1.797693134862E+308
1.400000000000E+002    0.000000000000E+000    0.000000000000E+000    0.000000000000E+000    0.000000000000E+000    0.000000000000E+000    -1.797693134862E+308    -1.797693134862E+308    -1.797693134862E+308
1.500000000000E+002    0.000000000000E+000    0.000000000000E+000    0.000000000000E+000    0.000000000000E+000    0.000000000000E+000    -1.797693134862E+308    -1.797693134862E+308    -1.797693134862E+308
1.600000000000E+002    0.000000000000E+000    0.000000000000E+000    0.000000000000E+000    0.000000000000E+000    0.000000000000E+000    -1.797693134862E+308    -1.797693134862E+308    -1.797693134862E+308
1.700000000000E+002    0.000000000000E+000    0.000000000000E+000    0.000000000000E+000    0.000000000000E+000    0.000000000000E+000    -1.797693134862E+308    -1.797693134862E+308    -1.797693134862E+308
1.800000000000E+002    0.000000000000E+000    0.000000000000E+000    0.000000000000E+000    0.000000000000E+000    0.000000000000E+000    -1.797693134862E+308    -1.797693134862E+308    -1.797693134862E+308
0.000000000000E+000    1.000000000000E+001    -2.257634070051E+000    -1.201746114405E+000    3.980817991167E-001    2.119002639311E-001    7.383917247664E+000    -7.689707331503E+000    7.516888068265E+000
1.000000000000E+001    1.000000000000E+001    -2.230983020076E+000    -1.215272536510E+000    3.892262321095E-001    2.066414105890E-001    7.325811565788E+000    -7.890152626593E+000    7.454557841698E+000
2.000000000000E+001    1.000000000000E+001    -2.124985050670E+000    -1.176376239358E+000    3.642491339263E-001    1.928854185201E-001    6.935500848977E+000    -8.471114988979E+000    7.058795269023E+000
3.000000000000E+001    1.000000000000E+001    -1.958074968257E+000    -1.094333968090E+000    3.258946042758E-001    1.721536766552E-001    6.244487988323E+000    -9.442183756347E+000    6.360184290762E+000
4.000000000000E+001    1.000000000000E+001    -1.756883520493E+000    -9.832903960216E-001    2.779147197865E-001    1.464772349295E-001    5.305707290554E+000    -1.082976710766E+001    5.410179977769E+000
5.000000000000E+001    1.000000000000E+001    -1.551217397207E+000    -8.576872746704E-001    2.241919986403E-001    1.179273827602E-001    4.199333386322E+000    -1.269934687986E+001    4.287138264369E+000
6.000000000000E+001    1.000000000000E+001    -1.369833109019E+000    -7.261496470979E-001    1.679708425341E-001    8.821094045790E-002    3.036273610653E+000    -1.521012727123E+001    3.100826041882E+000
7.000000000000E+001    1.000000000000E+001    -1.237676146656E+000    -5.783723817693E-001    1.113949821070E-001    5.843194628818E-002    1.937352694900E+000    -1.877966900403E+001    1.974017351255E+000
8.000000000000E+001    1.000000000000E+001    -1.154527323886E+000    -3.158033383142E-001    5.541277860651E-002    2.904911973527E-002    7.888526155839E-001    -2.484591175322E+001    8.007025308239E-001
9.000000000000E+001    1.000000000000E+001    0.000000000000E+000    0.000000000000E+000    0.000000000000E+000    0.000000000000E+000    -1.797693134862E+308    -1.797693134862E+308    -1.797693134862E+308
1.000000000000E+002    1.000000000000E+001    0.000000000000E+000    0.000000000000E+000    0.000000000000E+000    0.000000000000E+000    -1.797693134862E+308    -1.797693134862E+308    -1.797693134862E+308
1.100000000000E+002    1.000000000000E+001    0.000000000000E+000    0.000000000000E+000    0.000000000000E+000    0.000000000000E+000    -1.797693134862E+308    -1.797693134862E+308    -1.797693134862E+308
1.200000000000E+002    1.000000000000E+001    0.000000000000E+000    0.000000000000E+000    0.000000000000E+000    0.000000000000E+000    -1.797693134862E+308    -1.797693134862E+308    -1.797693134862E+308
1.300000000000E+002    1.000000000000E+001    0.000000000000E+000    0.000000000000E+000    0.000000000000E+000    0.000000000000E+000    -1.797693134862E+308    -1.797693134862E+308    -1.797693134862E+308
1.400000000000E+002    1.000000000000E+001    0.000000000000E+000    0.000000000000E+000    0.000000000000E+000    0.000000000000E+000    -1.797693134862E+308    -1.797693134862E+308    -1.797693134862E+308
1.500000000000E+002    1.000000000000E+001    0.000000000000E+000    0.000000000000E+000    0.000000000000E+000    0.000000000000E+000    -1.797693134862E+308    -1.797693134862E+308    -1.797693134862E+308
1.600000000000E+002    1.000000000000E+001    0.000000000000E+000    0.000000000000E+000    0.000000000000E+000    0.000000000000E+000    -1.797693134862E+308    -1.797693134862E+308    -1.797693134862E+308
1.700000000000E+002    1.000000000000E+001    0.000000000000E+000    0.000000000000E+000    0.000000000000E+000    0.000000000000E+000    -1.797693134862E+308    -1.797693134862E+308    -1.797693134862E+308
1.800000000000E+002    1.000000000000E+001    0.000000000000E+000    0.000000000000E+000    0.000000000000E+000    0.000000000000E+000    -1.797693134862E+308    -1.797693134862E+308    -1.797693134862E+308
0.000000000000E+000    2.000000000000E+001    -2.154209356672E+000    -1.146692795939E+000    7.840680842063E-001    4.173620455694E-001    6.976604397124E+000    -1.802078238824E+000    7.516888068265E+000
1.000000000000E+001    2.000000000000E+001    -2.129658622352E+000    -1.161811110325E+000    7.666500209451E-001    4.070677819225E-001    6.925055657400E+000    -2.002012713266E+000    7.448241065618E+000
2.000000000000E+001    2.000000000000E+001    -2.029354687643E+000    -1.126748012755E+000    7.174732524747E-001    3.800297321415E-001    6.541553967876E+000    -2.582484999516E+000    7.042828497209E+000
3.000000000000E+001    2.000000000000E+001    -1.870862989905E+000    -1.050220752005E+000    6.419406801628E-001    3.392364981293E-001    5.857902338266E+000    -3.553093566746E+000    6.328800596523E+000
4.000000000000E+001    2.000000000000E+001    -1.679587729098E+000    -9.456413671143E-001    5.474420265034E-001    2.886833403180E-001    4.927289222158E+000    -4.940256702441E+000    5.353425677014E+000
5.000000000000E+001    2.000000000000E+001    -1.483989621319E+000    -8.267547968331E-001    4.416251758260E-001    2.324482125044E-001    3.829990902633E+000    -6.809467714214E+000    4.189523132670E+000
6.000000000000E+001    2.000000000000E+001    -1.311567661664E+000    -7.017762508489E-001    3.308819093549E-001    1.738943863402E-001    2.676630477229E+000    -9.319943264351E+000    2.942557660330E+000
7.000000000000E+001    2.000000000000E+001    -1.186273815501E+000    -5.607782219321E-001    2.194363108652E-001    1.152002392556E-001    1.587025473290E+000    -1.288925637642E+001    1.739263101616E+000
8.000000000000E+001    2.000000000000E+001    -1.108310590823E+000    -3.089229939925E-001    1.091578479310E-001    5.727450260016E-002    4.455829530170E-001    -1.895535721894E+001    4.951518768863E-001
9.000000000000E+001    2.000000000000E+001    0.000000000000E+000    0.000000000000E+000    0.000000000000E+000    0.000000000000E+000    -1.797693134862E+308    -1.797693134862E+308    -1.797693134862E+308
1.000000000000E+002    2.000000000000E+001    0.000000000000E+000    0.000000000000E+000    0.000000000000E+000    0.000000000000E+000    -1.797693134862E+308    -1.797693134862E+308    -1.797693134862E+308
1.100000000000E+002    2.000000000000E+001    0.000000000000E+000    0.000000000000E+000    0.000000000000E+000    0.000000000000E+000    -1.797693134862E+308    -1.797693134862E+308    -1.797693134862E+308
1.200000000000E+002    2.000000000000E+001    0.000000000000E+000    0.000000000000E+000    0.000000000000E+000    0.000000000000E+000    -1.797693134862E+308    -1.797693134862E+308    -1.797693134862E+308
1.300000000000E+002    2.000000000000E+001    0.000000000000E+000    0.000000000000E+000    0.000000000000E+000    0.000000000000E+000    -1.797693134862E+308    -1.797693134862E+308    -1.797693134862E+308
1.400000000000E+002    2.000000000000E+001    0.000000000000E+000    0.000000000000E+000    0.000000000000E+000    0.000000000000E+000    -1.797693134862E+308    -1.797693134862E+308    -1.797693134862E+308
1.500000000000E+002    2.000000000000E+001    0.000000000000E+000    0.000000000000E+000    0.000000000000E+000    0.000000000000E+000    -1.797693134862E+308    -1.797693134862E+308    -1.797693134862E+308
1.600000000000E+002    2.000000000000E+001    0.000000000000E+000    0.000000000000E+000    0.000000000000E+000    0.000000000000E+000    -1.797693134862E+308    -1.797693134862E+308    -1.797693134862E+308
1.700000000000E+002    2.000000000000E+001    0.000000000000E+000    0.000000000000E+000    0.000000000000E+000    0.000000000000E+000    -1.797693134862E+308    -1.797693134862E+308    -1.797693134862E+308
1.800000000000E+002    2.000000000000E+001    0.000000000000E+000    0.000000000000E+000    0.000000000000E+000    0.000000000000E+000    -1.797693134862E+308    -1.797693134862E+308    -1.797693134862E+308
0.000000000000E+000    3.000000000000E+001    -1.985330082073E+000    -1.056797797124E+000    1.146230857315E+000    6.101424926484E-001    6.267500702182E+000    1.496288154986E+000    7.516888068265E+000
1.000000000000E+001    3.000000000000E+001    -1.964195361086E+000    -1.074478802582E+000    1.120824805781E+000    5.952451219716E-001    6.228008701583E+000    1.297188401598E+000    7.438040667891E+000
2.000000000000E+001    3.000000000000E+001    -1.873178021506E+000    -1.045640046187E+000    1.048977814236E+000    5.558514360952E-001    5.857022026828E+000    7.175182334744E-001    7.017222988250E+000
3.000000000000E+001    3.000000000000E+001    -1.728424127078E+000    -9.780879872264E-001    9.385836697085E-001    4.963116143350E-001    5.186891694980E+000    -2.523357753502E-001    6.278659314169E+000
4.000000000000E+001    3.000000000000E+001    -1.553334716052E+000    -8.840401808451E-001    8.004442226795E-001    4.224542251664E-001    4.271265875830E+000    -1.638808578107E+000    5.262697268354E+000
5.000000000000E+001    3.000000000000E+001    -1.374171692574E+000    -7.761044245262E-001    6.457417103517E-001    3.402369070994E-001    3.190595484398E+000    -3.507412496676E+000    4.032404189115E+000
6.000000000000E+001    3.000000000000E+001    -1.216378867386E+000    -6.618266212782E-001    4.838238920565E-001    2.545800456834E-001    2.054967980491E+000    -6.017385028217E+000    2.684060818228E+000
7.000000000000E+001    3.000000000000E+001    -1.102282413300E+000    -5.318965122001E-001    3.208701227045E-001    1.686773885687E-001    9.823512237908E-001    -9.586320028472E+000    1.347549987546E+000
8.000000000000E+001    3.000000000000E+001    -1.032763926179E+000    -2.975521953809E-001    1.596171556686E-001    8.386984486466E-002    -1.462530691118E-001    -1.565218572457E+001    -2.570789028237E-002
9.000000000000E+001    3.000000000000E+001    0.000000000000E+000    0.000000000000E+000    0.000000000000E+000    0.000000000000E+000    -1.797693134862E+308    -1.797693134862E+308    -1.797693134862E+308
1.000000000000E+002    3.000000000000E+001    0.000000000000E+000    0.000000000000E+000    0.000000000000E+000    0.000000000000E+000    -1.797693134862E+308    -1.797693134862E+308    -1.797693134862E+308
1.100000000000E+002    3.000000000000E+001    0.000000000000E+000    0.000000000000E+000    0.000000000000E+000    0.000000000000E+000    -1.797693134862E+308    -1.797693134862E+308    -1.797693134862E+308
1.200000000000E+002    3.000000000000E+001    0.000000000000E+000    0.000000000000E+000    0.000000000000E+000    0.000000000000E+000    -1.797693134862E+308    -1.797693134862E+308    -1.797693134862E+308
1.300000000000E+002    3.000000000000E+001    0.000000000000E+000    0.000000000000E+000    0.000000000000E+000    0.000000000000E+000    -1.797693134862E+308    -1.797693134862E+308    -1.797693134862E+308
1.400000000000E+002    3.000000000000E+001    0.000000000000E+000    0.000000000000E+000    0.000000000000E+000    0.000000000000E+000    -1.797693134862E+308    -1.797693134862E+308    -1.797693134862E+308
1.500000000000E+002    3.000000000000E+001    0.000000000000E+000    0.000000000000E+000    0.000000000000E+000    0.000000000000E+000    -1.797693134862E+308    -1.797693134862E+308    -1.797693134862E+308
1.600000000000E+002    3.000000000000E+001    0.000000000000E+000    0.000000000000E+000    0.000000000000E+000    0.000000000000E+000    -1.797693134862E+308    -1.797693134862E+308    -1.797693134862E+308
1.700000000000E+002    3.000000000000E+001    0.000000000000E+000    0.000000000000E+000    0.000000000000E+000    0.000000000000E+000    -1.797693134862E+308    -1.797693134862E+308    -1.797693134862E+308
1.800000000000E+002    3.000000000000E+001    0.000000000000E+000    0.000000000000E+000    0.000000000000E+000    0.000000000000E+000    -1.797693134862E+308    -1.797693134862E+308    -1.797693134862E+308
0.000000000000E+000    4.000000000000E+001    -1.756127557555E+000    -9.347925320081E-001    1.473565985845E+000    7.843840688353E-001    5.201967399336E+000    3.678238003314E+000    7.516888068265E+000
1.000000000000E+001    4.000000000000E+001    -1.739602044996E+000    -9.558789702410E-001    1.441005262208E+000    7.654970025003E-001    5.182279734660E+000    3.480272351108E+000    7.424425274434E+000
2.000000000000E+001    4.000000000000E+001    -1.661166136237E+000    -9.354191311443E-001    1.348719565013E+000    7.150852724184E-001    4.831830914004E+000    2.901694541721E+000    6.983418059219E+000
3.000000000000E+001    4.000000000000E+001    -1.535039964320E+000    -8.799888290294E-001    1.206848340266E+000    6.387087303755E-001    4.183859248057E+000    1.932870751217E+000    6.212899684525E+000
4.000000000000E+001    4.000000000000E+001    -1.381905235484E+000    -8.001879910221E-001    1.029275610685E+000    5.438396323055E-001    3.292744450131E+000    5.473430697795E-001    5.143763824851E+000
5.000000000000E+001    4.000000000000E+001    -1.225037730849E+000    -7.070823586370E-001    8.303796479824E-001    4.381303766042E-001    2.239188440925E+000    -1.320427234321E+000    3.824604010189E+000
6.000000000000E+001    4.000000000000E+001    -1.087088477182E+000    -6.073092589991E-001    6.221836832930E-001    3.279129229736E-001    1.132364116278E+000    -3.829706919976E+000    2.334817424658E+000
7.000000000000E+001    4.000000000000E+001    -9.881703655100E-001    -4.923975137278E-001    4.126388996793E-001    2.173090629345E-001    8.721480581895E-002    -7.398119559341E+000    8.002507199862E-001
8.000000000000E+001    4.000000000000E+001    -9.300683143589E-001    -2.818526666607E-001    2.052703186790E-001    1.080641984369E-001    -1.020721712659E+000    -1.346365960683E+001    -7.800627667798E-001
9.000000000000E+001    4.000000000000E+001    0.000000000000E+000    0.000000000000E+000    0.000000000000E+000    0.000000000000E+000    -1.797693134862E+308    -1.797693134862E+308    -1.797693134862E+308
1.000000000000E+002    4.000000000000E+001    0.000000000000E+000    0.000000000000E+000    0.000000000000E+000    0.000000000000E+000    -1.797693134862E+308    -1.797693134862E+308    -1.797693134862E+308
1.100000000000E+002    4.000000000000E+001    0.000000000000E+000    0.000000000000E+000    0.000000000000E+000    0.000000000000E+000    -1.797693134862E+308    -1.797693134862E+308    -1.797693134862E+308
1.200000000000E+002    4.000000000000E+001    0.000000000000E+000    0.000000000000E+000    0.000000000000E+000    0.000000000000E+000    -1.797693134862E+308    -1.797693134862E+308    -1.797693134862E+308
1.300000000000E+002    4.000000000000E+001    0.000000000000E+000    0.000000000000E+000    0.000000000000E+000    0.000000000000E+000    -1.797693134862E+308    -1.797693134862E+308    -1.797693134862E+308
1.400000000000E+002    4.000000000000E+001    0.000000000000E+000    0.000000000000E+000    0.000000000000E+000    0.000000000000E+000    -1.797693134862E+308    -1.797693134862E+308    -1.797693134862E+308
1.500000000000E+002    4.000000000000E+001    0.000000000000E+000    0.000000000000E+000    0.000000000000E+000    0.000000000000E+000    -1.797693134862E+308    -1.797693134862E+308    -1.797693134862E+308
1.600000000000E+002    4.000000000000E+001    0.000000000000E+000    0.000000000000E+000    0.000000000000E+000    0.000000000000E+000    -1.797693134862E+308    -1.797693134862E+308    -1.797693134862E+308
1.700000000000E+002    4.000000000000E+001    0.000000000000E+000    0.000000000000E+000    0.000000000000E+000    0.000000000000E+000    -1.797693134862E+308    -1.797693134862E+308    -1.797693134862E+308
1.800000000000E+002    4.000000000000E+001    0.000000000000E+000    0.000000000000E+000    0.000000000000E+000    0.000000000000E+000    -1.797693134862E+308    -1.797693134862E+308    -1.797693134862E+308
0.000000000000E+000    5.000000000000E+001    -1.473565985845E+000    -7.843840688353E-001    1.756127557555E+000    9.347925320081E-001    3.678238003314E+000    5.201967399336E+000    7.516888068265E+000
1.000000000000E+001    5.000000000000E+001    -1.462679618725E+000    -8.095538201588E-001    1.717471895904E+000    9.126720271027E-001    3.690927246764E+000    5.005401796390E+000    7.408007133037E+000
2.000000000000E+001    5.000000000000E+001    -1.399717862516E+000    -7.993151667146E-001    1.607608320817E+000    8.529328043495E-001    3.373989249681E+000    4.428176515820E+000    6.943290715648E+000
3.000000000000E+001    5.000000000000E+001    -1.296527368287E+000    -7.587353080406E-001    1.438607215584E+000    7.621534283026E-001    2.762071921288E+000    3.460632414861E+000    6.135682397603E+000
4.000000000000E+001    5.000000000000E+001    -1.170436596149E+000    -6.964253771713E-001    1.227010243123E+000    6.492090319930E-001    1.910681390180E+000    2.076282709407E+000    5.004571278944E+000
5.000000000000E+001    5.000000000000E+001    -1.041037238741E+000    -6.215519721607E-001    9.899558405979E-001    5.232102075696E-001    9.008314352320E-001    2.095550832912E-001    3.579232723449E+000
6.000000000000E+001    5.000000000000E+001    -9.275321056444E-001    -5.396320263760E-001    7.417809656343E-001    3.917128080120E-001    -1.598848568732E-001    -2.298854899577E+000    1.911304889960E+000
7.000000000000E+001    5.000000000000E+001    -8.472952014059E-001    -4.432311069041E-001    4.919718177322E-001    2.596524701240E-001    -1.161407861684E+000    -5.866609659238E+000    1.045764923156E-001
8.000000000000E+001    5.000000000000E+001    -8.031970555056E-001    -2.620812882889E-001    2.447394931908E-001    1.291407254194E-001    -2.236755043616E+000    -1.193173849266E+001    -1.794197063901E+000
9.000000000000E+001    5.000000000000E+001    0.000000000000E+000    0.000000000000E+000    0.000000000000E+000    0.000000000000E+000    -1.797693134862E+308    -1.797693134862E+308    -1.797693134862E+308
1.000000000000E+002    5.000000000000E+001    0.000000000000E+000    0.000000000000E+000    0.000000000000E+000    0.000000000000E+000    -1.797693134862E+308    -1.797693134862E+308    -1.797693134862E+308
1.100000000000E+002    5.000000000000E+001    0.000000000000E+000    0.000000000000E+000    0.000000000000E+000    0.000000000000E+000    -1.797693134862E+308    -1.797693134862E+308    -1.797693134862E+308
1.200000000000E+002    5.000000000000E+001    0.000000000000E+000    0.000000000000E+000    0.000000000000E+000    0.000000000000E+000    -1.797693134862E+308    -1.797693134862E+308    -1.797693134862E+308
1.300000000000E+002    5.000000000000E+001    0.000000000000E+000    0.000000000000E+000    0.000000000000E+000    0.000000000000E+000    -1.797693134862E+308    -1.797693134862E+308    -1.797693134862E+308
1.400000000000E+002    5.000000000000E+001    0.000000000000E+000    0.000000000000E+000    0.000000000000E+000    0.000000000000E+000    -1.797693134862E+308    -1.797693134862E+308    -1.797693134862E+308
1.500000000000E+002    5.000000000000E+001    0.000000000000E+000    0.000000000000E+000    0.000000000000E+000    0.000000000000E+000    -1.797693134862E+308    -1.797693134862E+308    -1.797693134862E+308
1.600000000000E+002    5.000000000000E+001    0.000000000000E+000    0.000000000000E+000    0.000000000000E+000    0.000000000000E+000    -1.797693134862E+308    -1.797693134862E+308    -1.797693134862E+308
1.700000000000E+002    5.000000000000E+001    0.000000000000E+000    0.000000000000E+000    0.000000000000E+000    0.000000000000E+000    -1.797693134862E+308    -1.797693134862E+308    -1.797693134862E+308
1.800000000000E+002    5.000000000000E+001    0.000000000000E+000    0.000000000000E+000    0.000000000000E+000    0.000000000000E+000    -1.797693134862E+308    -1.797693134862E+308    -1.797693134862E+308
0.000000000000E+000    6.000000000000E+001    -1.146230857315E+000    -6.101424926484E-001    1.985330082073E+000    1.056797797124E+000    1.496288154986E+000    6.267500702182E+000    7.516888068265E+000
1.000000000000E+001    6.000000000000E+001    -1.141817150381E+000    -6.398843034866E-001    1.941825230803E+000    1.032297775071E+000    1.565482246002E+000    6.072559640303E+000    7.389502049134E+000
2.000000000000E+001    6.000000000000E+001    -1.096729887501E+000    -6.413378250616E-001    1.817780913742E+000    9.652035109266E-001    1.306792677922E+000    5.496909230480E+000    6.899020852549E+000
3.000000000000E+001    6.000000000000E+001    -1.020067458577E+000    -6.178341174625E-001    1.626824354003E+000    8.628909138920E-001    7.571854595008E-001    4.530860731363E+000    6.051920697351E+000
4.000000000000E+001    6.000000000000E+001    -9.252728768926E-001    -5.756876049359E-001    1.387648640861E+000    7.353551978586E-001    -2.608933664224E-002    3.147893065035E+000    4.854927395940E+000
5.000000000000E+001    6.000000000000E+001    -8.276665284716E-001    -5.218672716849E-001    1.119631770237E+000    5.928848130801E-001    -9.617627673866E-001    1.282393504204E+000    3.313985310198E+000
6.000000000000E+001    6.000000000000E+001    -7.424498171481E-001    -4.605917186754E-001    8.389918026721E-001    4.440349344813E-001    -1.945206520348E+000    -1.224988292537E+000    1.440115270938E+000
7.000000000000E+001    6.000000000000E+001    -6.838102142791E-001    -3.856310271556E-001    5.564663522010E-001    2.944161303321E-001    -2.874618244505E+000    -4.791962687202E+000    -7.180289882024E-001
8.000000000000E+001    6.000000000000E+001    -6.558390125858E-001    -2.386126006615E-001    2.768298494804E-001    1.464563413144E-001    -3.896762538023E+000    -1.085660249947E+001    -3.099959118204E+000
9.000000000000E+001    6.000000000000E+001    0.000000000000E+000    0.000000000000E+000    0.000000000000E+000    0.000000000000E+000    -1.797693134862E+308    -1.797693134862E+308    -1.797693134862E+308
1.000000000000E+002    6.000000000000E+001    0.000000000000E+000    0.000000000000E+000    0.000000000000E+000    0.000000000000E+000    -1.797693134862E+308    -1.797693134862E+308    -1.797693134862E+308
1.100000000000E+002    6.000000000000E+001    0.000000000000E+000    0.000000000000E+000    0.000000000000E+000    0.000000000000E+000    -1.797693134862E+308    -1.797693134862E+308    -1.797693134862E+308
1.200000000000E+002    6.000000000000E+001    0.000000000000E+000    0.000000000000E+000    0.000000000000E+000    0.000000000000E+000    -1.797693134862E+308    -1.797693134862E+308    -1.797693134862E+308
1.300000000000E+002    6.000000000000E+001    0.000000000000E+000    0.000000000000E+000    0.000000000000E+000    0.000000000000E+000    -1.797693134862E+308    -1.797693134862E+308    -1.797693134862E+308
1.400000000000E+002    6.000000000000E+001    0.000000000000E+000    0.000000000000E+000    0.000000000000E+000    0.000000000000E+000    -1.797693134862E+308    -1.797693134862E+308    -1.797693134862E+308
1.500000000000E+002    6.000000000000E+001    0.000000000000E+000    0.000000000000E+000    0.000000000000E+000    0.000000000000E+000    -1.797693134862E+308    -1.797693134862E+308    -1.797693134862E+308
1.600000000000E+002    6.000000000000E+001    0.000000000000E+000    0.000000000000E+000    0.000000000000E+000    0.000000000000E+000    -1.797693134862E+308    -1.797693134862E+308    -1.797693134862E+308
1.700000000000E+002    6.000000000000E+001    0.000000000000E+000    0.000000000000E+000    0.000000000000E+000    0.000000000000E+000    -1.797693134862E+308    -1.797693134862E+308    -1.797693134862E+308
1.800000000000E+002    6.000000000000E+001    0.000000000000E+000    0.000000000000E+000    0.000000000000E+000    0.000000000000E+000    -1.797693134862E+308    -1.797693134862E+308    -1.797693134862E+308
0.000000000000E+000    7.000000000000E+001    -7.840680842063E-001    -4.173620455694E-001    2.154209356672E+000    1.146692795939E+000    -1.802078238824E+000    6.976604397124E+000    7.516888068265E+000
1.000000000000E+001    7.000000000000E+001    -7.867398359511E-001    -4.519649387119E-001    2.107240801771E+000    1.120716847361E+000    -1.617372391227E+000    6.783464012928E+000    7.369683235958E+000
2.000000000000E+001    7.000000000000E+001    -7.613620426299E-001    -4.661702242171E-001    1.972839292978E+000    1.048442659343E+000    -1.758082677986E+000    6.209565961203E+000    6.852926446741E+000
3.000000000000E+001    7.000000000000E+001    -7.139943446838E-001    -4.614021671480E-001    1.765767532990E+000    9.378011307450E-001    -2.183134507283E+000    5.245188366695E+000    5.966904785391E+000
4.000000000000E+001    7.000000000000E+001    -6.537802848240E-001    -4.414427782284E-001    1.506297767702E+000    7.995930883636E-001    -2.832593457000E+000    3.863771091450E+000    4.705869422421E+000
5.000000000000E+001    7.000000000000E+001    -5.913107547536E-001    -4.108324350135E-001    1.215457828127E+000    6.449698050180E-001    -3.625678693190E+000    1.999654729834E+000    3.050738569888E+000
6.000000000000E+001    7.000000000000E+001    -5.373522031376E-001    -3.723527522353E-001    9.108560474200E-001    4.832306213753E-001    -4.464310342543E+000    -5.065646967152E-001    9.609136685348E-001
7.000000000000E+001    7.000000000000E+001    -5.025503688764E-001    -3.211112132943E-001    6.041591091808E-001    3.205003228311E-001    -5.262130556282E+000    -4.072654106356E+000    -1.616496246316E+000
8.000000000000E+001    7.000000000000E+001    -4.923037094481E-001    -2.119577941774E-001    3.005646695219E-001    1.594619116431E-001    -6.189403454913E+000    -1.013673805698E+001    -4.718937347393E+000
9.000000000000E+001    7.000000000000E+001    0.000000000000E+000    0.000000000000E+000    0.000000000000E+000    0.000000000000E+000    -1.797693134862E+308    -1.797693134862E+308    -1.797693134862E+308