##File Type: Far field
#Frequency: 1.57542e+09
#No. of Theta Samples: 41
#No. of Phi Samples: 49
#Far Field Type: Gain
#No. of Header Lines: 1
#    "Theta"    "Phi"    "Re(Etheta)"    "Im(Etheta)"    "Re(Ephi)"     "Im(Ephi)"    "Gain(Theta)"    "Gain(Phi)"    "Gain(Total)"
0 0 0 0 0 0 0 0 0
4.5 0 0 0 0 0 0 0 0
9 0 0 0 0 0 0 0 0
13.5 0 0 0 0 0 0 0 0
18 0 0 0 0 0 0 0 0
22.5 0 0 0 0 0 0 0 0
27 0 0 0 0 0 0 0 0
31.5 0 0 0 0 0 0 0 0
36 0 0 0 0 0 0 0 0
40.5 0 0 0 0 0 0 0 0
45 0 0 0 0 0 0 0 0
49.5 0 0 0 0 0 0 0 0
54 0 0 0 0 0 0 0 0
58.5 0 0 0 0 0 0 0 0
63 0 0 0 0 0 0 0 0
67.5 0 0 0 0 0 0 0 0
72 0 0 0 0 0 0 0 0
76.5 0 0 0 0 0 0 0 0
81 0 0 0 0 0 0 0 0
85.5 0 0 0 0 0 0 0 0
90 0 0 0 0 0 0 0 0
94.5 0 0 0 0 0 0 0 0
99 0 0 0 0 0 0 0 0
103.5 0 0 0 0 0 0 0 0
108 0 0 0 0 0 0 0 0
112.5 0 0 0 0 0 0 0 0
117 0 0 0 0 0 0 0 0
121.5 0 0 0 0 0 0 0 0
126 0 0 0 0 0 0 0 0
130.5 0 0 0 0 0 0 0 0
135 0 0 0 0 0 0 0 0
139.5 0 0 0 0 0 0 0 0
144 0 0 0 0 0 0 0 0
148.5 0 0 0 0 0 0 0 0
153 0 0 0 0 0 0 0 0
157.5 0 0 0 0 0 0 0 0
162 0 0 0 0 0 0 0 0
166.5 0 0 0 0 0 0 0 0
171 0 0 0 0 0 0 0 0
175.5 0 0 0 0 0 0 0 0
180 0 0 0 0 0 0 0 0
0 7.5 0 0 0 0 0 0 0
4.5 7.5 0 0 0 0 0 0 0
9 7.5 0 0 0 0 0 0 0
13.5 7.5 0 0 0 0 0 0 0
18 7.5 0 0 0 0 0 0 0
22.5 7.5 0 0 0 0 0 0 0
27 7.5 0 0 0 0 0 0 0
31.5 7.5 0 0 0 0 0 0 0
36 7.5 0 0 0 0 0 0 0
40.5 7.5 0 0 0 0 0 0 0
45 7.5 0 0 0 0 0 0 0
49.5 7.5 0 0 0 0 0 0 0
54 7.5 0 0 0 0 0 0 0
58.5 7.5 0 0 0 0 0 0 0
63 7.5 0 0 0 0 0 0 0
67.5 7.5 0 0 0 0 0 0 0
72 7.5 0 0 0 0 0 0 0
76.5 7.5 0 0 0 0 0 0 0
81 7.5 0 0 0 0 0 0 0
85.5 7.5 0 0 0 0 0 0 0
90 7.5 0 0 0 0 0 0 0
94.5 7.5 0 0 0 0 0 0 0
99 7.5 0 0 0 0 0 0 0
103.5 7.5 0 0 0 0 0 0 0
108 7.5 0 0 0 0 0 0 0
112.5 7.5 0 0 0 0 0 0 0
117 7.5 0 0 0 0 0 0 0
121.5 7.5 0 0 0 0 0 0 0
126 7.5 0 0 0 0 0 0 0
130.5 7.5 0 0 0 0 0 0 0
135 7.5 0 0 0 0 0 0 0
139.5 7.5 0 0 0 0 0 0 0
144 7.5 0 0 0 0 0 0 0
148.5 7.5 0 0 0 0 0 0 0
153 7.5 0 0 0 0 0 0 0
157.5 7.5 0 0 0 0 0 0 0
162 7.5 0 0 0 0 0 0 0
166.5 7.5 0 0 0 0 0 0 0
171 7.5 0 0 0 0 0 0 0
175.5 7.5 0 0 0 0 0 0 0
180 7.5 0 0 0 0 0 0 0
0 15 0 0 0 0 0 0 0
4.5 15 0 0 0 0 0 0 0
9 15 0 0 0 0 0 0 0
13.5 15 0 0 0 0 0 0 0
18 15 0 0 0 0 0 0 0
22.5 15 0 0 0 0 0 0 0
27 15 0 0 0 0 0 0 0
31.5 15 0 0 0 0 0 0 0
36 15 0 0 0 0 0 0 0
40.5 15 0 0 0 0 0 0 0
45 15 0 0 0 0 0 0 0
49.5 15 0 0 0 0 0 0 0
54 15 0 0 0 0 0 0 0
58.5 15 0 0 0 0 0 0 0
63 15 0 0 0 0 0 0 0
67.5 15 0 0 0 0 0 0 0
72 15 0 0 0 0 0 0 0
76.5 15 0 0 0 0 0 0 0
81 15 0 0 0 0 0 0 0
85.5 15 0 0 0 0 0 0 0
90 15 0 0 0 0 0 0 0
94.5 15 0 0 0 0 0 0 0
99 15 0 0 0 0 0 0 0
103.5 15 0 0 0 0 0 0 0
108 15 0 0 0 0 0 0 0
112.5 15 0 0 0 0 0 0 0
117 15 0 0 0 0 0 0 0
121.5 15 0 0 0 0 0 0 0
126 15 0 0 0 0 0 0 0
130.5 15 0 0 0 0 0 0 0
135 15 0 0 0 0 0 0 0
139.5 15 0 0 0 0 0 0 0
144 15 0 0 0 0 0 0 0
148.5 15 0 0 0 0 0 0 0
153 15 0 0 0 0 0 0 0
157.5 15 0 0 0 0 0 0 0
162 15 0 0 0 0 0 0 0
166.5 15 0 0 0 0 0 0 0
171 15 0 0 0 0 0 0 0
175.5 15 0 0 0 0 0 0 0
180 15 0 0 0 0 0 0 0
0 22.5 0 0 0 0 0 0 0
4.5 22.5 0 0 0 0 0 0 0
9 22.5 0 0 0 0 0 0 0
13.5 22.5 0 0 0 0 0 0 0
18 22.5 0 0 0 0 0 0 0
22.5 22.5 0 0 0 0 0 0 0
27 22.5 0 0 0 0 0 0 0
31.5 22.5 0 0 0 0 0 0 0
36 22.5 0 0 0 0 0 0 0
40.5 22.5 0 0 0 0 0 0 0
45 22.5 0 0 0 0 0 0 0
49.5 22.5 0 0 0 0 0 0 0
54 22.5 0 0 0 0 0 0 0
58.5 22.5 0 0 0 0 0 0 0
63 22.5 0 0 0 0 0 0 0
67.5 22.5 0 0 0 0 0 0 0
72 22.5 0 0 0 0 0 0 0
76.5 22.5 0 0 0 0 0 0 0
81 22.5 0 0 0 0 0 0 0
85.5 22.5 0 0 0 0 0 0 0
90 22.5 0 0 0 0 0 0 0
94.5 22.5 0 0 0 0 0 0 0
99 22.5 0 0 0 0 0 0 0
103.5 22.5 0 0 0 0 0 0 0
108 22.5 0 0 0 0 0 0 0
112.5 22.5 0 0 0 0 0 0 0
117 22.5 0 0 0 0 0 0 0
121.5 22.5 0 0 0 0 0 0 0
126 22.5 0 0 0 0 0 0 0
130.5 22.5 0 0 0 0 0 0 0
135 22.5 0 0 0 0 0 0 0
139.5 22.5 0 0 0 0 0 0 0
144 22.5 0 0 0 0 0 0 0
148.5 22.5 0 0 0 0 0 0 0
153 22.5 0 0 0 0 0 0 0
157.5 22.5 0 0 0 0 0 0 0
162 22.5 0 0 0 0 0 0 0
166.5 22.5 0 0 0 0 0 0 0
171 22.5 0 0 0 0 0 0 0
175.5 22.5 0 0 0 0 0 0 0
180 22.5 0 0 0 0 0 0 0
0 30 0 0 0 0 0 0 0
4.5 30 0 0 0 0 0 0 0
9 30 0 0 0 0 0 0 0
13.5 30 0 0 0 0 0 0 0
18 30 0 0 0 0 0 0 0
22.5 30 0 0 0 0 0 0 0
27 30 0 0 0 0 0 0 0
31.5 30 0 0 0 0 0 0 0
36 30 0 0 0 0 0 0 0
40.5 30 0 0 0 0 0 0 0
45 30 0 0 0 0 0 0 0
49.5 30 0 0 0 0 0 0 0
54 30 0 0 0 0 0 0 0
58.5 30 0 0 0 0 0 0 0
63 30 0 0 0 0 0 0 0
67.5 30 0 0 0 0 0 0 0
72 30 0 0 0 0 0 0 0
76.5 30 0 0 0 0 0 0 0
81 30 0 0 0 0 0 0 0
85.5 30 0 0 0 0 0 0 0
90 30 0 0 0 0 0 0 0
94.5 30 0 0 0 0 0 0 0
99 30 0 0 0 0 0 0 0
103.5 30 0 0 0 0 0 0 0
108 30 0 0 0 0 0 0 0
112.5 30 0 0 0 0 0 0 0
117 30 0 0 0 0 0 0 0
121.5 30 0 0 0 0 0 0 0
126 30 0 0 0 0 0 0 0
130.5 30 0 0 0 0 0 0 0
135 30 0 0 0 0 0 0 0
139.5 30 0 0 0 0 0 0 0
144 30 0 0 0 0 0 0 0
148.5 30 0 0 0 0 0 0 0
153 30 0 0 0 0 0 0 0
157.5 30 0 0 0 0 0 0 0
162 30 0 0 0 0 0 0 0
166.5 30 0 0 0 0 0 0 0
171 30 0 0 0 0 0 0 0
175.5 30 0 0 0 0 0 0 0
180 30 0 0 0 0 0 0 0
0 37.5 0 0 0 0 0 0 0
4.5 37.5 0 0 0 0 0 0 0
9 37.5 0 0 0 0 0 0 0
13.5 37.5 0 0 0 0 0 0 0
18 37.5 0 0 0 0 0 0 0
22.5 37.5 0 0 0 0 0 0 0
27 37.5 0 0 0 0 0 0 0
31.5 37.5 0 0 0 0 0 0 0
36 37.5 0 0 0 0 0 0 0
40.5 37.5 0 0 0 0 0 0 0
45 37.5 0 0 0 0 0 0 0
49.5 37.5 0 0 0 0 0 0 0
54 37.5 0 0 0 0 0 0 0
58.5 37.5 0 0 0 0 0 0 0
63 37.5 0 0 0 0 0 0 0
67.5 37.5 0 0 0 0 0 0 0
72 37.5 0 0 0 0 0 0 0
76.5 37.5 0 0 0 0 0 0 0
81 37.5 0 0 0 0 0 0 0
85.5 37.5 0 0 0 0 0 0 0
90 37.5 0 0 0 0 0 0 0
94.5 37.5 0 0 0 0 0 0 0
99 37.5 0 0 0 0 0 0 0
103.5 37.5 0 0 0 0 0 0 0
108 37.5 0 0 0 0 0 0 0
112.5 37.5 0 0 0 0 0 0 0
117 37.5 0 0 0 0 0 0 0
121.5 37.5 0 0 0 0 0 0 0
126 37.5 0 0 0 0 0 0 0
130.5 37.5 0 0 0 0 0 0 0
135 37.5 0 0 0 0 0 0 0
139.5 37.5 0 0 0 0 0 0 0
144 37.5 0 0 0 0 0 0 0
148.5 37.5 0 0 0 0 0 0 0
153 37.5 0 0 0 0 0 0 0
157.5 37.5 0 0 0 0 0 0 0
162 37.5 0 0 0 0 0 0 0
166.5 37.5 0 0 0 0 0 0 0
171 37.5 0 0 0 0 0 0 0
175.5 37.5 0 0 0 0 0 0 0
180 37.5 0 0 0 0 0 0 0
0 45 0 0 0 0 0 0 0
4.5 45 0 0 0 0 0 0 0
9 45 0 0 0 0 0 0 0
13.5 45 0 0 0 0 0 0 0
18 45 0 0 0 0 0 0 0
22.5 45 0 0 0 0 0 0 0
27 45 0 0 0 0 0 0 0
31.5 45 0 0 0 0 0 0 0
36 45 0 0 0 0 0 0 0
40.5 45 0 0 0 0 0 0 0
45 45 0 0 0 0 0 0 0
49.5 45 0 0 0 0 0 0 0
54 45 0 0 0 0 0 0 0
58.5 45 0 0 0 0 0 0 0
63 45 0 0 0 0 0 0 0
67.5 45 0 0 0 0 0 0 0
72 45 0 0 0 0 0 0 0
76.5 45 0 0 0 0 0 0 0
81 45 0 0 0 0 0 0 0
85.5 45 0 0 0 0 0 0 0
90 45 0 0 0 0 0 0 0
94.5 45 0 0 0 0 0 0 0
99 45 0 0 0 0 0 0 0
103.5 45 0 0 0 0 0 0 0
108 45 0 0 0 0 0 0 0
112.5 45 0 0 0 0 0 0 0
117 45 0 0 0 0 0 0 0
121.5 45 0 0 0 0 0 0 0
126 45 0 0 0 0 0 0 0
130.5 45 0 0 0 0 0 0 0
135 45 0 0 0 0 0 0 0
139.5 45 0 0 0 0 0 0 0
144 45 0 0 0 0 0 0 0
148.5 45 0 0 0 0 0 0 0
153 45 0 0 0 0 0 0 0
157.5 45 0 0 0 0 0 0 0
162 45 0 0 0 0 0 0 0
166.5 45 0 0 0 0 0 0 0
171 45 0 0 0 0 0 0 0
175.5 45 0 0 0 0 0 0 0
180 45 0 0 0 0 0 0 0
0 52.5 0 0 0 0 0 0 0
4.5 52.5 0 0 0 0 0 0 0
9 52.5 0 0 0 0 0 0 0
13.5 52.5 0 0 0 0 0 0 0
18 52.5 0 0 0 0 0 0 0
22.5 52.5 0 0 0 0 0 0 0
27 52.5 0 0 0 0 0 0 0
31.5 52.5 0 0 0 0 0 0 0
36 52.5 0 0 0 0 0 0 0
40.5 52.5 0 0 0 0 0 0 0
45 52.5 0 0 0 0 0 0 0
49.5 52.5 0 0 0 0 0 0 0
54 52.5 0 0 0 0 0 0 0
58.5 52.5 0 0 0 0 0 0 0
63 52.5 0 0 0 0 0 0 0
67.5 52.5 0 0 0 0 0 0 0
72 52.5 0 0 0 0 0 0 0
76.5 52.5 0 0 0 0 0 0 0
81 52.5 0 0 0 0 0 0 0
85.5 52.5 0 0 0 0 0 0 0
90 52.5 0 0 0 0 0 0 0
94.5 52.5 0 0 0 0 0 0 0
99 52.5 0 0 0 0 0 0 0
103.5 52.5 0 0 0 0 0 0 0
108 52.5 0 0 0 0 0 0 0
112.5 52.5 0 0 0 0 0 0 0
117 52.5 0 0 0 0 0 0 0
121.5 52.5 0 0 0 0 0 0 0
126 52.5 0 0 0 0 0 0 0
130.5 52.5 0 0 0 0 0 0 0
135 52.5 0 0 0 0 0 0 0
139.5 52.5 0 0 0 0 0 0 0
144 52.5 0 0 0 0 0 0 0
148.5 52.5 0 0 0 0 0 0 0
153 52.5 0 0 0 0 0 0 0
157.5 52.5 0 0 0 0 0 0 0
162 52.5 0 0 0 0 0 0 0
166.5 52.5 0 0 0 0 0 0 0
171 52.5 0 0 0 0 0 0 0
175.5 52.5 0 0 0 0 0 0 0
180 52.5 0 0 0 0 0 0 0
0 60 0 0 0 0 0 0 0
4.5 60 0 0 0 0 0 0 0
9 60 0 0 0 0 0 0 0
13.5 60 0 0 0 0 0 0 0
18 60 0 0 0 0 0 0 0
22.5 60 0 0 0 0 0 0 0
27 60 0 0 0 0 0 0 0
31.5 60 0 0 0 0 0 0 0
36 60 0 0 0 0 0 0 0
40.5 60 0 0 0 0 0 0 0
45 60 0 0 0 0 0 0 0
49.5 60 0 0 0 0 0 0 0
54 60 0 0 0 0 0 0 0
58.5 60 0 0 0 0 0 0 0
63 60 0 0 0 0 0 0 0
67.5 60 0 0 0 0 0 0 0
72 60 0 0 0 0 0 0 0
76.5 60 0 0 0 0 0 0 0
81 60 0 0 0 0 0 0 0
85.5 60 0 0 0 0 0 0 0
90 60 0 0 0 0 0 0 0
94.5 60 0 0 0 0 0 0 0
99 60 0 0 0 0 0 0 0
103.5 60 0 0 0 0 0 0 0
108 60 0 0 0 0 0 0 0
112.5 60 0 0 0 0 0 0 0
117 60 0 0 0 0 0 0 0
121.5 60 0 0 0 0 0 0 0
126 60 0 0 0 0 0 0 0
130.5 60 0 0 0 0 0 0 0
135 60 0 0 0 0 0 0 0
139.5 60 0 0 0 0 0 0 0
144 60 0 0 0 0 0 0 0
148.5 60 0 0 0 0 0 0 0
153 60 0 0 0 0 0 0 0
157.5 60 0 0 0 0 0 0 0
162 60 0 0 0 0 0 0 0
166.5 60 0 0 0 0 0 0 0
171 60 0 0 0 0 0 0 0
175.5 60 0 0 0 0 0 0 0
180 60 0 0 0 0 0 0 0
0 67.5 0 0 0 0 0 0 0
4.5 67.5 0 0 0 0 0 0 0
9 67.5 0 0 0 0 0 0 0
13.5 67.5 0 0 0 0 0 0 0
18 67.5 0 0 0 0 0 0 0
22.5 67.5 0 0 0 0 0 0 0
27 67.5 0 0 0 0 0 0 0
31.5 67.5 0 0 0 0 0 0 0
36 67.5 0 0 0 0 0 0 0
40.5 67.5 0 0 0 0 0 0 0
45 67.5 0 0 0 0 0 0 0
49.5 67.5 0 0 0 0 0 0 0
54 67.5 0 0 0 0 0 0 0
58.5 67.5 0 0 0 0 0 0 0
63 67.5 0 0 0 0 0 0 0
67.5 67.5 0 0 0 0 0 0 0
72 67.5 0 0 0 0 0 0 0
76.5 67.5 0 0 0 0 0 0 0
81 67.5 0 0 0 0 0 0 0
85.5 67.5 0 0 0 0 0 0 0
90 67.5 0 0 0 0 0 0 0
94.5 67.5 0 0 0 0 0 0 0
99 67.5 0 0 0 0 0 0 0
103.5 67.5 0 0 0 0 0 0 0
108 67.5 0 0 0 0 0 0 0
112.5 67.5 0 0 0 0 0 0 0
117 67.5 0 0 0 0 0 0 0
121.5 67.5 0 0 0 0 0 0 0
126 67.5 0 0 0 0 0 0 0
130.5 67.5 0 0 0 0 0 0 0
135 67.5 0 0 0 0 0 0 0
139.5 67.5 0 0 0 0 0 0 0
144 67.5 0 0 0 0 0 0 0
148.5 67.5 0 0 0 0 0 0 0
153 67.5 0 0 0 0 0 0 0
157.5 67.5 0 0 0 0 0 0 0
162 67.5 0 0 0 0 0 0 0
166.5 67.5 0 0 0 0 0 0 0
171 67.5 0 0 0 0 0 0 0
175.5 67.5 0 0 0 0 0 0 0
180 67.5 0 0 0 0 0 0 0
0 75 0 0 0 0 0 0 0
4.5 75 0 0 0 0 0 0 0
9 75 0 0 0 0 0 0 0
13.5 75 0 0 0 0 0 0 0
18 75 0 0 0 0 0 0 0
22.5 75 0 0 0 0 0 0 0
27 75 0 0 0 0 0 0 0
31.5 75 0 0 0 0 0 0 0
36 75 0 0 0 0 0 0 0
40.5 75 0 0 0 0 0 0 0
45 75 0 0 0 0 0 0 0
49.5 75 0 0 0 0 0 0 0
54 75 0 0 0 0 0 0 0
58.5 75 0 0 0 0 0 0 0
63 75 0 0 0 0 0 0 0
67.5 75 0 0 0 0 0 0 0
72 75 0 0 0 0 0 0 0
76.5 75 0 0 0 0 0 0 0
81 75 0 0 0 0 0 0 0
85.5 75 0 0 0 0 0 0 0
90 75 0 0 0 0 0 0 0
94.5 75 0 0 0 0 0 0 0
99 75 0 0 0 0 0 0 0
103.5 75 0 0 0 0 0 0 0
108 75 0 0 0 0 0 0 0
112.5 75 0 0 0 0 0 0 0
117 75 0 0 0 0 0 0 0
121.5 75 0 0 0 0 0 0 0
126 75 0 0 0 0 0 0 0
130.5 75 0 0 0 0 0 0 0
135 75 0 0 0 0 0 0 0
139.5 75 0 0 0 0 0 0 0
144 75 0 0 0 0 0 0 0
148.5 75 0 0 0 0 0 0 0
153 75 0 0 0 0 0 0 0
157.5 75 0 0 0 0 0 0 0
162 75 0 0 0 0 0 0 0
166.5 75 0 0 0 0 0 0 0
171 75 0 0 0 0 0 0 0
175.5 75 0 0 0 0 0 0 0
180 75 0 0 0 0 0 0 0
0 82.5 0 0 0 0 0 0 0
4.5 82.5 0 0 0 0 0 0 0
9 82.5 0 0 0 0 0 0 0
13.5 82.5 0 0 0 0 0 0 0
18 82.5 0 0 0 0 0 0 0
22.5 82.5 0 0 0 0 0 0 0
27 82.5 0 0 0 0 0 0 0
31.5 82.5 0 0 0 0 0 0 0
36 82.5 0 0 0 0 0 0 0
40.5 82.5 0 0 0 0 0 0 0
45 82.5 0 0 0 0 0 0 0
49.5 82.5 0 0 0 0 0 0 0
54 82.5 0 0 0 0 0 0 0
58.5 82.5 0 0 0 0 0 0 0
63 82.5 0 0 0 0 0 0 0
67.5 82.5 0 0 0 0 0 0 0
72 82.5 0 0 0 0 0 0 0
76.5 82.5 0 0 0 0 0 0 0
81 82.5 0 0 0 0 0 0 0
85.5 82.5 0 0 0 0 0 0 0
90 82.5 0 0 0 0 0 0 0
94.5 82.5 0 0 0 0 0 0 0
99 82.5 0 0 0 0 0 0 0
103.5 82.5 0 0 0 0 0 0 0
108 82.5 0 0 0 0 0 0 0
112.5 82.5 0 0 0 0 0 0 0
117 82.5 0 0 0 0 0 0 0
121.5 82.5 0 0 0 0 0 0 0
126 82.5 0 0 0 0 0 0 0
130.5 82.5 0 0 0 0 0 0 0
135 82.5 0 0 0 0 0 0 0
139.5 82.5 0 0 0 0 0 0 0
144 82.5 0 0 0 0 0 0 0
148.5 82.5 0 0 0 0 0 0 0
153 82.5 0 0 0 0 0 0 0
157.5 82.5 0 0 0 0 0 0 0
162 82.5 0 0 0 0 0 0 0
166.5 82.5 0 0 0 0 0 0 0
171 82.5 0 0 0 0 0 0 0
175.5 82.5 0 0 0 0 0 0 0
180 82.5 0 0 0 0 0 0 0
0 90 0 0 0 0 0 0 0
4.5 90 0 0 0 0 0 0 0
9 90 0 0 0 0 0 0 0
13.5 90 0 0 0 0 0 0 0
18 90 0 0 0 0 0 0 0
22.5 90 0 0 0 0 0 0 0
27 90 0 0 0 0 0 0 0
31.5 90 0 0 0 0 0 0 0
36 90 0 0 0 0 0 0 0
40.5 90 0 0 0 0 0 0 0
45 90 0 0 0 0 0 0 0
49.5 90 0 0 0 0 0 0 0
54 90 0 0 0 0 0 0 0
58.5 90 0 0 0 0 0 0 0
63 90 0 0 0 0 0 0 0
67.5 90 0 0 0 0 0 0 0
72 90 0 0 0 0 0 0 0
76.5 90 0 0 0 0 0 0 0
81 90 0 0 0 0 0 0 0
85.5 90 0 0 0 0 0 0 0
90 90 0 0 0 0 0 0 0
94.5 90 0 0 0 0 0 0 0
99 90 0 0 0 0 0 0 0
103.5 90 0 0 0 0 0 0 0
108 90 0 0 0 0 0 0 0
112.5 90 0 0 0 0 0 0 0
117 90 0 0 0 0 0 0 0
121.5 90 0 0 0 0 0 0 0
126 90 0 0 0 0 0 0 0
130.5 90 0 0 0 0 0 0 0
135 90 0 0 0 0 0 0 0
139.5 90 0 0 0 0 0 0 0
144 90 0 0 0 0 0 0 0
148.5 90 0 0 0 0 0 0 0
153 90 0 0 0 0 0 0 0
157.5 90 0 0 0 0 0 0 0
162 90 0 0 0 0 0 0 0
166.5 90 0 0 0 0 0 0 0
171 90 0 0 0 0 0 0 0
175.5 90 0 0 0 0 0 0 0
180 90 0 0 0 0 0 0 0
0 97.5 0 0 0 0 0 0 0
4.5 97.5 0 0 0 0 0 0 0
9 97.5 0 0 0 0 0 0 0
13.5 97.5 0 0 0 0 0 0 0
18 97.5 0 0 0 0 0 0 0
22.5 97.5 0 0 0 0 0 0 0
27 97.5 0 0 0 0 0 0 0
31.5 97.5 0 0 0 0 0 0 0
36 97.5 0 0 0 0 0 0 0
40.5 97.5 0 0 0 0 0 0 0
45 97.5 0 0 0 0 0 0 0
49.5 97.5 0 0 0 0 0 0 0
54 97.5 0 0 0 0 0 0 0
58.5 97.5 0 0 0 0 0 0 0
63 97.5 0 0 0 0 0 0 0
67.5 97.5 0 0 0 0 0 0 0
72 97.5 0 0 0 0 0 0 0
76.5 97.5 0 0 0 0 0 0 0
81 97.5 0 0 0 0 0 0 0
85.5 97.5 0 0 0 0 0 0 0
90 97.5 0 0 0 0 0 0 0
94.5 97.5 0 0 0 0 0 0 0
99 97.5 0 0 0 0 0 0 0
103.5 97.5 0 0 0 0 0 0 0
108 97.5 0 0 0 0 0 0 0
112.5 97.5 0 0 0 0 0 0 0
117 97.5 0 0 0 0 0 0 0
121.5 97.5 0 0 0 0 0 0 0
126 97.5 0 0 0 0 0 0 0
130.5 97.5 0 0 0 0 0 0 0
135 97.5 0 0 0 0 0 0 0
139.5 97.5 0 0 0 0 0 0 0
144 97.5 0 0 0 0 0 0 0
148.5 97.5 0 0 0 0 0 0 0
153 97.5 0 0 0 0 0 0 0
157.5 97.5 0 0 0 0 0 0 0
162 97.5 0 0 0 0 0 0 0
166.5 97.5 0 0 0 0 0 0 0
171 97.5 0 0 0 0 0 0 0
175.5 97.5 0 0 0 0 0 0 0
180 97.5 0 0 0 0 0 0 0
0 105 0 0 0 0 0 0 0
4.5 105 0 0 0 0 0 0 0
9 105 0 0 0 0 0 0 0
13.5 105 0 0 0 0 0 0 0
18 105 0 0 0 0 0 0 0
22.5 105 0 0 0 0 0 0 0
27 105 0 0 0 0 0 0 0
31.5 105 0 0 0 0 0 0 0
36 105 0 0 0 0 0 0 0
40.5 105 0 0 0 0 0 0 0
45 105 0 0 0 0 0 0 0
49.5 105 0 0 0 0 0 0 0
54 105 0 0 0 0 0 0 0
58.5 105 0 0 0 0 0 0 0
63 105 0 0 0 0 0 0 0
67.5 105 0 0 0 0 0 0 0
72 105 0 0 0 0 0 0 0
76.5 105 0 0 0 0 0 0 0
81 105 0 0 0 0 0 0 0
85.5 105 0 0 0 0 0 0 0
90 105 0 0 0 0 0 0 0
94.5 105 0 0 0 0 0 0 0
99 105 0 0 0 0 0 0 0
103.5 105 0 0 0 0 0 0 0
108 105 0 0 0 0 0 0 0
112.5 105 0 0 0 0 0 0 0
117 105 0 0 0 0 0 0 0
121.5 105 0 0 0 0 0 0 0
126 105 0 0 0 0 0 0 0
130.5 105 0 0 0 0 0 0 0
135 105 0 0 0 0 0 0 0
139.5 105 0 0 0 0 0 0 0
144 105 0 0 0 0 0 0 0
148.5 105 0 0 0 0 0 0 0
153 105 0 0 0 0 0 0 0
157.5 105 0 0 0 0 0 0 0
162 105 0 0 0 0 0 0 0
166.5 105 0 0 0 0 0 0 0
171 105 0 0 0 0 0 0 0
175.5 105 0 0 0 0 0 0 0
180 105 0 0 0 0 0 0 0
0 112.5 0 0 0 0 0 0 0
4.5 112.5 0 0 0 0 0 0 0
9 112.5 0 0 0 0 0 0 0
13.5 112.5 0 0 0 0 0 0 0
18 112.5 0 0 0 0 0 0 0
22.5 112.5 0 0 0 0 0 0 0
27 112.5 0 0 0 0 0 0 0
31.5 112.5 0 0 0 0 0 0 0
36 112.5 0 0 0 0 0 0 0
40.5 112.5 0 0 0 0 0 0 0
45 112.5 0 0 0 0 0 0 0
49.5 112.5 0 0 0 0 0 0 0
54 112.5 0 0 0 0 0 0 0
58.5 112.5 0 0 0 0 0 0 0
63 112.5 0 0 0 0 0 0 0
67.5 112.5 0 0 0 0 0 0 0
72 112.5 0 0 0 0 0 0 0
76.5 112.5 0 0 0 0 0 0 0
81 112.5 0 0 0 0 0 0 0
85.5 112.5 0 0 0 0 0 0 0
90 112.5 0 0 0 0 0 0 0
94.5 112.5 0 0 0 0 0 0 0
99 112.5 0 0 0 0 0 0 0
103.5 112.5 0 0 0 0 0 0 0
108 112.5 0 0 0 0 0 0 0
112.5 112.5 0 0 0 0 0 0 0
117 112.5 0 0 0 0 0 0 0
121.5 112.5 0 0 0 0 0 0 0
126 112.5 0 0 0 0 0 0 0
130.5 112.5 0 0 0 0 0 0 0
135 112.5 0 0 0 0 0 0 0
139.5 112.5 0 0 0 0 0 0 0
144 112.5 0 0 0 0 0 0 0
148.5 112.5 0 0 0 0 0 0 0
153 112.5 0 0 0 0 0 0 0
157.5 112.5 0 0 0 0 0 0 0
162 112.5 0 0 0 0 0 0 0
166.5 112.5 0 0 0 0 0 0 0
171 112.5 0 0 0 0 0 0 0
175.5 112.5 0 0 0 0 0 0 0
180 112.5 0 0 0 0 0 0 0
0 120 0 0 0 0 0 0 0
4.5 120 0 0 0 0 0 0 0
9 120 0 0 0 0 0 0 0
13.5 120 0 0 0 0 0 0 0
18 120 0 0 0 0 0 0 0
22.5 120 0 0 0 0 0 0 0
27 120 0 0 0 0 0 0 0
31.5 120 0 0 0 0 0 0 0
36 120 0 0 0 0 0 0 0
40.5 120 0 0 0 0 0 0 0
45 120 0 0 0 0 0 0 0
49.5 120 0 0 0 0 0 0 0
54 120 0 0 0 0 0 0 0
58.5 120 0 0 0 0 0 0 0
63 120 0 0 0 0 0 0 0
67.5 120 0 0 0 0 0 0 0
72 120 0 0 0 0 0 0 0
76.5 120 0 0 0 0 0 0 0
81 120 0 0 0 0 0 0 0
85.5 120 0 0 0 0 0 0 0
90 120 0 0 0 0 0 0 0
94.5 120 0 0 0 0 0 0 0
99 120 0 0 0 0 0 0 0
103.5 120 0 0 0 0 0 0 0
108 120 0 0 0 0 0 0 0
112.5 120 0 0 0 0 0 0 0
117 120 0 0 0 0 0 0 0
121.5 120 0 0 0 0 0 0 0
126 120 0 0 0 0 0 0 0
130.5 120 0 0 0 0 0 0 0
135 120 0 0 0 0 0 0 0
139.5 120 0 0 0 0 0 0 0
144 120 0 0 0 0 0 0 0
148.5 120 0 0 0 0 0 0 0
153 120 0 0 0 0 0 0 0
157.5 120 0 0 0 0 0 0 0
162 120 0 0 0 0 0 0 0
166.5 120 0 0 0 0 0 0 0
171 120 0 0 0 0 0 0 0
175.5 120 0 0 0 0 0 0 0
180 120 0 0 0 0 0 0 0
0 127.5 0 0 0 0 0 0 0
4.5 127.5 0 0 0 0 0 0 0
9 127.5 0 0 0 0 0 0 0
13.5 127.5 0 0 0 0 0 0 0
18 127.5 0 0 0 0 0 0 0
22.5 127.5 0 0 0 0 0 0 0
27 127.5 0 0 0 0 0 0 0
31.5 127.5 0 0 0 0 0 0 0
36 127.5 0 0 0 0 0 0 0
40.5 127.5 0 0 0 0 0 0 0
45 127.5 0 0 0 0 0 0 0
49.5 127.5 0 0 0 0 0 0 0
54 127.5 0 0 0 0 0 0 0
58.5 127.5 0 0 0 0 0 0 0
63 127.5 0 0 0 0 0 0 0
67.5 127.5 0 0 0 0 0 0 0
72 127.5 0 0 0 0 0 0 0
76.5 127.5 0 0 0 0 0 0 0
81 127.5 0 0 0 0 0 0 0
85.5 127.5 0 0 0 0 0 0 0
90 127.5 0 0 0 0 0 0 0
94.5 127.5 0 0 0 0 0 0 0
99 127.5 0 0 0 0 0 0 0
103.5 127.5 0 0 0 0 0 0 0
108 127.5 0 0 0 0 0 0 0
112.5 127.5 0 0 0 0 0 0 0
117 127.5 0 0 0 0 0 0 0
121.5 127.5 0 0 0 0 0 0 0
126 127.5 0 0 0 0 0 0 0
130.5 127.5 0 0 0 0 0 0 0
135 127.5 0 0 0 0 0 0 0
139.5 127.5 0 0 0 0 0 0 0
144 127.5 0 0 0 0 0 0 0
148.5 127.5 0 0 0 0 0 0 0
153 127.5 0 0 0 0 0 0 0
157.5 127.5 0 0 0 0 0 0 0
162 127.5 0 0 0 0 0 0 0
166.5 127.5 0 0 0 0 0 0 0
171 127.5 0 0 0 0 0 0 0
175.5 127.5 0 0 0 0 0 0 0
180 127.5 0 0 0 0 0 0 0
0 135 0 0 0 0 0 0 0
4.5 135 0 0 0 0 0 0 0
9 135 0 0 0 0 0 0 0
13.5 135 0 0 0 0 0 0 0
18 135 0 0 0 0 0 0 0
22.5 135 0 0 0 0 0 0 0
27 135 0 0 0 0 0 0 0
31.5 135 0 0 0 0 0 0 0
36 135 0 0 0 0 0 0 0
40.5 135 0 0 0 0 0 0 0
45 135 0 0 0 0 0 0 0
49.5 135 0 0 0 0 0 0 0
54 135 0 0 0 0 0 0 0
58.5 135 0 0 0 0 0 0 0
63 135 0 0 0 0 0 0 0
67.5 135 0 0 0 0 0 0 0
72 135 0 0 0 0 0 0 0
76.5 135 0 0 0 0 0 0 0
81 135 0 0 0 0 0 0 0
85.5 135 0 0 0 0 0 0 0
90 135 0 0 0 0 0 0 0
94.5 135 0 0 0 0 0 0 0
99 135 0 0 0 0 0 0 0
103.5 135 0 0 0 0 0 0 0
108 135 0 0 0 0 0 0 0
112.5 135 0 0 0 0 0 0 0
117 135 0 0 0 0 0 0 0
121.5 135 0 0 0 0 0 0 0
126 135 0 0 0 0 0 0 0
130.5 135 0 0 0 0 0 0 0
135 135 0 0 0 0 0 0 0
139.5 135 0 0 0 0 0 0 0
144 135 0 0 0 0 0 0 0
148.5 135 0 0 0 0 0 0 0
153 135 0 0 0 0 0 0 0
157.5 135 0 0 0 0 0 0 0
162 135 0 0 0 0 0 0 0
166.5 135 0 0 0 0 0 0 0
171 135 0 0 0 0 0 0 0
175.5 135 0 0 0 0 0 0 0
180 135 0 0 0 0 0 0 0
0 142.5 0 0 0 0 0 0 0
4.5 142.5 0 0 0 0 0 0 0
9 142.5 0 0 0 0 0 0 0
13.5 142.5 0 0 0 0 0 0 0
18 142.5 0 0 0 0 0 0 0
22.5 142.5 0 0 0 0 0 0 0
27 142.5 0 0 0 0 0 0 0
31.5 142.5 0 0 0 0 0 0 0
36 142.5 0 0 0 0 0 0 0
40.5 142.5 0 0 0 0 0 0 0
45 142.5 0 0 0 0 0 0 0
49.5 142.5 0 0 0 0 0 0 0
54 142.5 0 0 0 0 0 0 0
58.5 142.5 0 0 0 0 0 0 0
63 142.5 0 0 0 0 0 0 0
67.5 142.5 0 0 0 0 0 0 0
72 142.5 0 0 0 0 0 0 0
76.5 142.5 0 0 0 0 0 0 0
81 142.5 0 0 0 0 0 0 0
85.5 142.5 0 0 0 0 0 0 0
90 142.5 0 0 0 0 0 0 0
94.5 142.5 0 0 0 0 0 0 0
99 142.5 0 0 0 0 0 0 0
103.5 142.5 0 0 0 0 0 0 0
108 142.5 0 0 0 0 0 0 0
112.5 142.5 0 0 0 0 0 0 0
117 142.5 0 0 0 0 0 0 0
121.5 142.5 0 0 0 0 0 0 0
126 142.5 0 0 0 0 0 0 0
130.5 142.5 0 0 0 0 0 0 0
135 142.5 0 0 0 0 0 0 0
139.5 142.5 0 0 0 0 0 0 0
144 142.5 0 0 0 0 0 0 0
148.5 142.5 0 0 0 0 0 0 0
153 142.5 0 0 0 0 0 0 0
157.5 142.5 0 0 0 0 0 0 0
162 142.5 0 0 0 0 0 0 0
166.5 142.5 0 0 0 0 0 0 0
171 142.5 0 0 0 0 0 0 0
175.5 142.5 0 0 0 0 0 0 0
180 142.5 0 0 0 0 0 0 0
0 150 0 0 0 0 0 0 0
4.5 150 0 0 0 0 0 0 0
9 150 0 0 0 0 0 0 0
13.5 150 0 0 0 0 0 0 0
18 150 0 0 0 0 0 0 0
22.5 150 0 0 0 0 0 0 0
27 150 0 0 0 0 0 0 0
31.5 150 0 0 0 0 0 0 0
36 150 0 0 0 0 0 0 0
40.5 150 0 0 0 0 0 0 0
45 150 0 0 0 0 0 0 0
49.5 150 0 0 0 0 0 0 0
54 150 0 0 0 0 0 0 0
58.5 150 0 0 0 0 0 0 0
63 150 0 0 0 0 0 0 0
67.5 150 0 0 0 0 0 0 0
72 150 0 0 0 0 0 0 0
76.5 150 0 0 0 0 0 0 0
81 150 0 0 0 0 0 0 0
85.5 150 0 0 0 0 0 0 0
90 150 0 0 0 0 0 0 0
94.5 150 0 0 0 0 0 0 0
99 150 0 0 0 0 0 0 0
103.5 150 0 0 0 0 0 0 0
108 150 0 0 0 0 0 0 0
112.5 150 0 0 0 0 0 0 0
117 150 0 0 0 0 0 0 0
121.5 150 0 0 0 0 0 0 0
126 150 0 0 0 0 0 0 0
130.5 150 0 0 0 0 0 0 0
135 150 0 0 0 0 0 0 0
139.5 150 0 0 0 0 0 0 0
144 150 0 0 0 0 0 0 0
148.5 150 0 0 0 0 0 0 0
153 150 0 0 0 0 0 0 0
157.5 150 0 0 0 0 0 0 0
162 150 0 0 0 0 0 0 0
166.5 150 0 0 0 0 0 0 0
171 150 0 0 0 0 0 0 0
175.5 150 0 0 0 0 0 0 0
180 150 0 0 0 0 0 0 0
0 157.5 0 0 0 0 0 0 0
4.5 157.5 0 0 0 0 0 0 0
9 157.5 0 0 0 0 0 0 0
13.5 157.5 0 0 0 0 0 0 0
18 157.5 0 0 0 0 0 0 0
22.5 157.5 0 0 0 0 0 0 0
27 157.5 0 0 0 0 0 0 0
31.5 157.5 0 0 0 0 0 0 0
36 157.5 0 0 0 0 0 0 0
40.5 157.5 0 0 0 0 0 0 0
45 157.5 0 0 0 0 0 0 0
49.5 157.5 0 0 0 0 0 0 0
54 157.5 0 0 0 0 0 0 0
58.5 157.5 0 0 0 0 0 0 0
63 157.5 0 0 0 0 0 0 0
67.5 157.5 0 0 0 0 0 0 0
72 157.5 0 0 0 0 0 0 0
76.5 157.5 0 0 0 0 0 0 0
81 157.5 0 0 0 0 0 0 0
85.5 157.5 0 0 0 0 0 0 0
90 157.5 0 0 0 0 0 0 0
94.5 157.5 0 0 0 0 0 0 0
99 157.5 0 0 0 0 0 0 0
103.5 157.5 0 0 0 0 0 0 0
108 157.5 0 0 0 0 0 0 0
112.5 157.5 0 0 0 0 0 0 0
117 157.5 0 0 0 0 0 0 0
121.5 157.5 0 0 0 0 0 0 0
126 157.5 0 0 0 0 0 0 0
130.5 157.5 0 0 0 0 0 0 0
135 157.5 0 0 0 0 0 0 0
139.5 157.5 0 0 0 0 0 0 0
144 157.5 0 0 0 0 0 0 0
148.5 157.5 0 0 0 0 0 0 0
153 157.5 0 0 0 0 0 0 0
157.5 157.5 0 0 0 0 0 0 0
162 157.5 0 0 0 0 0 0 0
166.5 157.5 0 0 0 0 0 0 0
171 157.5 0 0 0 0 0 0 0
175.5 157.5 0 0 0 0 0 0 0
180 157.5 0 0 0 0 0 0 0
0 165 0 0 0 0 0 0 0
4.5 165 0 0 0 0 0 0 0
9 165 0 0 0 0 0 0 0
13.5 165 0 0 0 0 0 0 0
18 165 0 0 0 0 0 0 0
22.5 165 0 0 0 0 0 0 0
27 165 0 0 0 0 0 0 0
31.5 165 0 0 0 0 0 0 0
36 165 0 0 0 0 0 0 0
40.5 165 0 0 0 0 0 0 0
45 165 0 0 0 0 0 0 0
49.5 165 0 0 0 0 0 0 0
54 165 0 0 0 0 0 0 0
58.5 165 0 0 0 0 0 0 0
63 165 0 0 0 0 0 0 0
67.5 165 0 0 0 0 0 0 0
72 165 0 0 0 0 0 0 0
76.5 165 0 0 0 0 0 0 0
81 165 0 0 0 0 0 0 0
85.5 165 0 0 0 0 0 0 0
90 165 0 0 0 0 0 0 0
94.5 165 0 0 0 0 0 0 0
99 165 0 0 0 0 0 0 0
103.5 165 0 0 0 0 0 0 0
108 165 0 0 0 0 0 0 0
112.5 165 0 0 0 0 0 0 0
117 165 0 0 0 0 0 0 0
121.5 165 0 0 0 0 0 0 0
126 165 0 0 0 0 0 0 0
130.5 165 0 0 0 0 0 0 0
135 165 0 0 0 0 0 0 0
139.5 165 0 0 0 0 0 0 0
144 165 0 0 0 0 0 0 0
148.5 165 0 0 0 0 0 0 0
153 165 0 0 0 0 0 0 0
157.5 165 0 0 0 0 0 0 0
162 165 0 0 0 0 0 0 0
166.5 165 0 0 0 0 0 0 0
171 165 0 0 0 0 0 0 0
175.5 165 0 0 0 0 0 0 0
180 165 0 0 0 0 0 0 0
0 172.5 0 0 0 0 0 0 0
4.5 172.5 0 0 0 0 0 0 0
9 172.5 0 0 0 0 0 0 0
13.5 172.5 0 0 0 0 0 0 0
18 172.5 0 0 0 0 0 0 0
22.5 172.5 0 0 0 0 0 0 0
27 172.5 0 0 0 0 0 0 0
31.5 172.5 0 0 0 0 0 0 0
36 172.5 0 0 0 0 0 0 0
40.5 172.5 0 0 0 0 0 0 0
45 172.5 0 0 0 0 0 0 0
49.5 172.5 0 0 0 0 0 0 0
54 172.5 0 0 0 0 0 0 0
58.5 172.5 0 0 0 0 0 0 0
63 172.5 0 0 0 0 0 0 0
67.5 172.5 0 0 0 0 0 0 0
72 172.5 0 0 0 0 0 0 0
76.5 172.5 0 0 0 0 0 0 0
81 172.5 0 0 0 0 0 0 0
85.5 172.5 0 0 0 0 0 0 0
90 172.5 0 0 0 0 0 0 0
94.5 172.5 0 0 0 0 0 0 0
99 172.5 0 0 0 0 0 0 0
103.5 172.5 0 0 0 0 0 0 0
108 172.5 0 0 0 0 0 0 0
112.5 172.5 0 0 0 0 0 0 0
117 172.5 0 0 0 0 0 0 0
121.5 172.5 0 0 0 0 0 0 0
126 172.5 0 0 0 0 0 0 0
130.5 172.5 0 0 0 0 0 0 0
135 172.5 0 0 0 0 0 0 0
139.5 172.5 0 0 0 0 0 0 0
144 172.5 0 0 0 0 0 0 0
148.5 172.5 0 0 0 0 0 0 0
153 172.5 0 0 0 0 0 0 0
157.5 172.5 0 0 0 0 0 0 0
162 172.5 0 0 0 0 0 0 0
166.5 172.5 0 0 0 0 0 0 0
171 172.5 0 0 0 0 0 0 0
175.5 172.5 0 0 0 0 0 0 0
180 172.5 0 0 0 0 0 0 0
0 180 0 0 0 0 0 0 0
4.5 180 0 0 0 0 0 0 0
9 180 0 0 0 0 0 0 0
13.5 180 0 0 0 0 0 0 0
18 180 0 0 0 0 0 0 0
22.5 180 0 0 0 0 0 0 0
27 180 0 0 0 0 0 0 0
31.5 180 0 0 0 0 0 0 0
36 180 0 0 0 0 0 0 0
40.5 180 0 0 0 0 0 0 0
45 180 0 0 0 0 0 0 0
49.5 180 0 0 0 0 0 0 0
54 180 0 0 0 0 0 0 0
58.5 180 0 0 0 0 0 0 0
63 180 0 0 0 0 0 0 0
67.5 180 0 0 0 0 0 0 0
72 180 0 0 0 0 0 0 0
76.5 180 0 0 0 0 0 0 0
81 180 0 0 0 0 0 0 0
85.5 180 0 0 0 0 0 0 0
90 180 0 0 0 0 0 0 0
94.5 180 0 0 0 0 0 0 0
99 180 0 0 0 0 0 0 0
103.5 180 0 0 0 0 0 0 0
108 180 0 0 0 0 0 0 0
112.5 180 0 0 0 0 0 0 0
117 180 0 0 0 0 0 0 0
121.5 180 0 0 0 0 0 0 0
126 180 0 0 0 0 0 0 0
130.5 180 0 0 0 0 0 0 0
135 180 0 0 0 0 0 0 0
139.5 180 0 0 0 0 0 0 0
144 180 0 0 0 0 0 0 0
148.5 180 0 0 0 0 0 0 0
153 180 0 0 0 0 0 0 0
157.5 180 0 0 0 0 0 0 0
162 180 0 0 0 0 0 0 0
166.5 180 0 0 0 0 0 0 0
171 180 0 0 0 0 0 0 0
175.5 180 0 0 0 0 0 0 0
180 180 0 0 0 0 0 0 0
0 187.5 0 0 0 0 0 0 0
4.5 187.5 0 0 0 0 0 0 0
9 187.5 0 0 0 0 0 0 0
13.5 187.5 0 0 0 0 0 0 0
18 187.5 0 0 0 0 0 0 0
22.5 187.5 0 0 0 0 0 0 0
27 187.5 0 0 0 0 0 0 0
31.5 187.5 0 0 0 0 0 0 0
36 187.5 0 0 0 0 0 0 0
40.5 187.5 0 0 0 0 0 0 0
45 187.5 0 0 0 0 0 0 0
49.5 187.5 0 0 0 0 0 0 0
54 187.5 0 0 0 0 0 0 0
58.5 187.5 0 0 0 0 0 0 0
63 187.5 0 0 0 0 0 0 0
67.5 187.5 0 0 0 0 0 0 0
72 187.5 0 0 0 0 0 0 0
76.5 187.5 0 0 0 0 0 0 0
81 187.5 0 0 0 0 0 0 0
85.5 187.5 0 0 0 0 0 0 0
90 187.5 0 0 0 0 0 0 0
94.5 187.5 0 0 0 0 0 0 0
99 187.5 0 0 0 0 0 0 0
103.5 187.5 0 0 0 0 0 0 0
108 187.5 0 0 0 0 0 0 0
112.5 187.5 0 0 0 0 0 0 0
117 187.5 0 0 0 0 0 0 0
121.5 187.5 0 0 0 0 0 0 0
126 187.5 0 0 0 0 0 0 0
130.5 187.5 0 0 0 0 0 0 0
135 187.5 0 0 0 0 0 0 0
139.5 187.5 0 0 0 0 0 0 0
144 187.5 0 0 0 0 0 0 0
148.5 187.5 0 0 0 0 0 0 0
153 187.5 0 0 0 0 0 0 0
157.5 187.5 0 0 0 0 0 0 0
162 187.5 0 0 0 0 0 0 0
166.5 187.5 0 0 0 0 0 0 0
171 187.5 0 0 0 0 0 0 0
175.5 187.5 0 0 0 0 0 0 0
180 187.5 0 0 0 0 0 0 0
0 195 0 0 0 0 0 0 0
4.5 195 0 0 0 0 0 0 0
9 195 0 0 0 0 0 0 0
13.5 195 0 0 0 0 0 0 0
18 195 0 0 0 0 0 0 0
22.5 195 0 0 0 0 0 0 0
27 195 0 0 0 0 0 0 0
31.5 195 0 0 0 0 0 0 0
36 195 0 0 0 0 0 0 0
40.5 195 0 0 0 0 0 0 0
45 195 0 0 0 0 0 0 0
49.5 195 0 0 0 0 0 0 0
54 195 0 0 0 0 0 0 0
58.5 195 0 0 0 0 0 0 0
63 195 0 0 0 0 0 0 0
67.5 195 0 0 0 0 0 0 0
72 195 0 0 0 0 0 0 0
76.5 195 0 0 0 0 0 0 0
81 195 0 0 0 0 0 0 0
85.5 195 0 0 0 0 0 0 0
90 195 0 0 0 0 0 0 0
94.5 195 0 0 0 0 0 0 0
99 195 0 0 0 0 0 0 0
103.5 195 0 0 0 0 0 0 0
108 195 0 0 0 0 0 0 0
112.5 195 0 0 0 0 0 0 0
117 195 0 0 0 0 0 0 0
121.5 195 0 0 0 0 0 0 0
126 195 0 0 0 0 0 0 0
130.5 195 0 0 0 0 0 0 0
135 195 0 0 0 0 0 0 0
139.5 195 0 0 0 0 0 0 0
144 195 0 0 0 0 0 0 0
148.5 195 0 0 0 0 0 0 0
153 195 0 0 0 0 0 0 0
157.5 195 0 0 0 0 0 0 0
162 195 0 0 0 0 0 0 0
166.5 195 0 0 0 0 0 0 0
171 195 0 0 0 0 0 0 0
175.5 195 0 0 0 0 0 0 0
180 195 0 0 0 0 0 0 0
0 202.5 0 0 0 0 0 0 0
4.5 202.5 0 0 0 0 0 0 0
9 202.5 0 0 0 0 0 0 0
13.5 202.5 0 0 0 0 0 0 0
18 202.5 0 0 0 0 0 0 0
22.5 202.5 0 0 0 0 0 0 0
27 202.5 0 0 0 0 0 0 0
31.5 202.5 0 0 0 0 0 0 0
36 202.5 0 0 0 0 0 0 0
40.5 202.5 0 0 0 0 0 0 0
45 202.5 0 0 0 0 0 0 0
49.5 202.5 0 0 0 0 0 0 0
54 202.5 0 0 0 0 0 0 0
58.5 202.5 0 0 0 0 0 0 0
63 202.5 0 0 0 0 0 0 0
67.5 202.5 0 0 0 0 0 0 0
72 202.5 0 0 0 0 0 0 0
76.5 202.5 0 0 0 0 0 0 0
81 202.5 0 0 0 0 0 0 0
85.5 202.5 0 0 0 0 0 0 0
90 202.5 0 0 0 0 0 0 0
94.5 202.5 0 0 0 0 0 0 0
99 202.5 0 0 0 0 0 0 0
103.5 202.5 0 0 0 0 0 0 0
108 202.5 0 0 0 0 0 0 0
112.5 202.5 0 0 0 0 0 0 0
117 202.5 0 0 0 0 0 0 0
121.5 202.5 0 0 0 0 0 0 0
126 202.5 0 0 0 0 0 0 0
130.5 202.5 0 0 0 0 0 0 0
135 202.5 0 0 0 0 0 0 0
139.5 202.5 0 0 0 0 0 0 0
144 202.5 0 0 0 0 0 0 0
148.5 202.5 0 0 0 0 0 0 0
153 202.5 0 0 0 0 0 0 0
157.5 202.5 0 0 0 0 0 0 0
162 202.5 0 0 0 0 0 0 0
166.5 202.5 0 0 0 0 0 0 0
171 202.5 0 0 0 0 0 0 0
175.5 202.5 0 0 0 0 0 0 0
180 202.5 0 0 0 0 0 0 0
0 210 0 0 0 0 0 0 0
4.5 210 0 0 0 0 0 0 0
9 210 0 0 0 0 0 0 0
13.5 210 0 0 0 0 0 0 0
18 210 0 0 0 0 0 0 0
22.5 210 0 0 0 0 0 0 0
27 210 0 0 0 0 0 0 0
31.5 210 0 0 0 0 0 0 0
36 210 0 0 0 0 0 0 0
40.5 210 0 0 0 0 0 0 0
45 210 0 0 0 0 0 0 0
49.5 210 0 0 0 0 0 0 0
54 210 0 0 0 0 0 0 0
58.5 210 0 0 0 0 0 0 0
63 210 0 0 0 0 0 0 0
67.5 210 0 0 0 0 0 0 0
72 210 0 0 0 0 0 0 0
76.5 210 0 0 0 0 0 0 0
81 210 0 0 0 0 0 0 0
85.5 210 0 0 0 0 0 0 0
90 210 0 0 0 0 0 0 0
94.5 210 0 0 0 0 0 0 0
99 210 0 0 0 0 0 0 0
103.5 210 0 0 0 0 0 0 0
108 210 0 0 0 0 0 0 0
112.5 210 0 0 0 0 0 0 0
117 210 0 0 0 0 0 0 0
121.5 210 0 0 0 0 0 0 0
126 210 0 0 0 0 0 0 0
130.5 210 0 0 0 0 0 0 0
135 210 0 0 0 0 0 0 0
139.5 210 0 0 0 0 0 0 0
144 210 0 0 0 0 0 0 0
148.5 210 0 0 0 0 0 0 0
153 210 0 0 0 0 0 0 0
157.5 210 0 0 0 0 0 0 0
162 210 0 0 0 0 0 0 0
166.5 210 0 0 0 0 0 0 0
171 210 0 0 0 0 0 0 0
175.5 210 0 0 0 0 0 0 0
180 210 0 0 0 0 0 0 0
0 217.5 0 0 0 0 0 0 0
4.5 217.5 0 0 0 0 0 0 0
9 217.5 0 0 0 0 0 0 0
13.5 217.5 0 0 0 0 0 0 0
18 217.5 0 0 0 0 0 0 0
22.5 217.5 0 0 0 0 0 0 0
27 217.5 0 0 0 0 0 0 0
31.5 217.5 0 0 0 0 0 0 0
36 217.5 0 0 0 0 0 0 0
40.5 217.5 0 0 0 0 0 0 0
45 217.5 0 0 0 0 0 0 0
49.5 217.5 0 0 0 0 0 0 0
54 217.5 0 0 0 0 0 0 0
58.5 217.5 0 0 0 0 0 0 0
63 217.5 0 0 0 0 0 0 0
67.5 217.5 0 0 0 0 0 0 0
72 217.5 0 0 0 0 0 0 0
76.5 217.5 0 0 0 0 0 0 0
81 217.5 0 0 0 0 0 0 0
85.5 217.5 0 0 0 0 0 0 0
90 217.5 0 0 0 0 0 0 0
94.5 217.5 0 0 0 0 0 0 0
99 217.5 0 0 0 0 0 0 0
103.5 217.5 0 0 0 0 0 0 0
108 217.5 0 0 0 0 0 0 0
112.5 217.5 0 0 0 0 0 0 0
117 217.5 0 0 0 0 0 0 0
121.5 217.5 0 0 0 0 0 0 0
126 217.5 0 0 0 0 0 0 0
130.5 217.5 0 0 0 0 0 0 0
135 217.5 0 0 0 0 0 0 0
139.5 217.5 0 0 0 0 0 0 0
144 217.5 0 0 0 0 0 0 0
148.5 217.5 0 0 0 0 0 0 0
153 217.5 0 0 0 0 0 0 0
157.5 217.5 0 0 0 0 0 0 0
162 217.5 0 0 0 0 0 0 0
166.5 217.5 0 0 0 0 0 0 0
171 217.5 0 0 0 0 0 0 0
175.5 217.5 0 0 0 0 0 0 0
180 217.5 0 0 0 0 0 0 0
0 225 0 0 0 0 0 0 0
4.5 225 0 0 0 0 0 0 0
9 225 0 0 0 0 0 0 0
13.5 225 0 0 0 0 0 0 0
18 225 0 0 0 0 0 0 0
22.5 225 0 0 0 0 0 0 0
27 225 0 0 0 0 0 0 0
31.5 225 0 0 0 0 0 0 0
36 225 0 0 0 0 0 0 0
40.5 225 0 0 0 0 0 0 0
45 225 0 0 0 0 0 0 0
49.5 225 0 0 0 0 0 0 0
54 225 0 0 0 0 0 0 0
58.5 225 0 0 0 0 0 0 0
63 225 0 0 0 0 0 0 0
67.5 225 0 0 0 0 0 0 0
72 225 0 0 0 0 0 0 0
76.5 225 0 0 0 0 0 0 0
81 225 0 0 0 0 0 0 0
85.5 225 0 0 0 0 0 0 0
90 225 0 0 0 0 0 0 0
94.5 225 0 0 0 0 0 0 0
99 225 0 0 0 0 0 0 0
103.5 225 0 0 0 0 0 0 0
108 225 0 0 0 0 0 0 0
112.5 225 0 0 0 0 0 0 0
117 225 0 0 0 0 0 0 0
121.5 225 0 0 0 0 0 0 0
126 225 0 0 0 0 0 0 0
130.5 225 0 0 0 0 0 0 0
135 225 0 0 0 0 0 0 0
139.5 225 0 0 0 0 0 0 0
144 225 0 0 0 0 0 0 0
148.5 225 0 0 0 0 0 0 0
153 225 0 0 0 0 0 0 0
157.5 225 0 0 0 0 0 0 0
162 225 0 0 0 0 0 0 0
166.5 225 0 0 0 0 0 0 0
171 225 0 0 0 0 0 0 0
175.5 225 0 0 0 0 0 0 0
180 225 0 0 0 0 0 0 0
0 232.5 0 0 0 0 0 0 0
4.5 232.5 0 0 0 0 0 0 0
9 232.5 0 0 0 0 0 0 0
13.5 232.5 0 0 0 0 0 0 0
18 232.5 0 0 0 0 0 0 0
22.5 232.5 0 0 0 0 0 0 0
27 232.5 0 0 0 0 0 0 0
31.5 232.5 0 0 0 0 0 0 0
36 232.5 0 0 0 0 0 0 0
40.5 232.5 0 0 0 0 0 0 0
45 232.5 0 0 0 0 0 0 0
49.5 232.5 0 0 0 0 0 0 0
54 232.5 0 0 0 0 0 0 0
58.5 232.5 0 0 0 0 0 0 0
63 232.5 0 0 0 0 0 0 0
67.5 232.5 0 0 0 0 0 0 0
72 232.5 0 0 0 0 0 0 0
76.5 232.5 0 0 0 0 0 0 0
81 232.5 0 0 0 0 0 0 0
85.5 232.5 0 0 0 0 0 0 0
90 232.5 0 0 0 0 0 0 0
94.5 232.5 0 0 0 0 0 0 0
99 232.5 0 0 0 0 0 0 0
103.5 232.5 0 0 0 0 0 0 0
108 232.5 0 0 0 0 0 0 0
112.5 232.5 0 0 0 0 0 0 0
117 232.5 0 0 0 0 0 0 0
121.5 232.5 0 0 0 0 0 0 0
126 232.5 0 0 0 0 0 0 0
130.5 232.5 0 0 0 0 0 0 0
135 232.5 0 0 0 0 0 0 0